 Entering Gaussian System, Link 0=g09
 Input=benzene.gjf
 Output=benzene.log
 Initial command:
 /opt/local/g09/l1.exe "/home/scratch/oscar/Gau-530.inp" -scrdir="/home/scratch/oscar/"
 Default is to use a total of  16 processors:
                               16 via shared-memory
                                1 via Linda
 Entering Link 1 = /opt/local/g09/l1.exe PID=       531.
  
 Copyright (c) 1988,1990,1992,1993,1995,1998,2003,2009,2013,
            Gaussian, Inc.  All Rights Reserved.
  
 This is part of the Gaussian(R) 09 program.  It is based on
 the Gaussian(R) 03 system (copyright 2003, Gaussian, Inc.),
 the Gaussian(R) 98 system (copyright 1998, Gaussian, Inc.),
 the Gaussian(R) 94 system (copyright 1995, Gaussian, Inc.),
 the Gaussian 92(TM) system (copyright 1992, Gaussian, Inc.),
 the Gaussian 90(TM) system (copyright 1990, Gaussian, Inc.),
 the Gaussian 88(TM) system (copyright 1988, Gaussian, Inc.),
 the Gaussian 86(TM) system (copyright 1986, Carnegie Mellon
 University), and the Gaussian 82(TM) system (copyright 1983,
 Carnegie Mellon University). Gaussian is a federally registered
 trademark of Gaussian, Inc.
  
 This software contains proprietary and confidential information,
 including trade secrets, belonging to Gaussian, Inc.
  
 This software is provided under written license and may be
 used, copied, transmitted, or stored only in accord with that
 written license.
  
 The following legend is applicable only to US Government
 contracts under FAR:
  
                    RESTRICTED RIGHTS LEGEND
  
 Use, reproduction and disclosure by the US Government is
 subject to restrictions as set forth in subparagraphs (a)
 and (c) of the Commercial Computer Software - Restricted
 Rights clause in FAR 52.227-19.
  
 Gaussian, Inc.
 340 Quinnipiac St., Bldg. 40, Wallingford CT 06492
  
  
 ---------------------------------------------------------------
 Warning -- This program may not be used in any manner that
 competes with the business of Gaussian, Inc. or will provide
 assistance to any competitor of Gaussian, Inc.  The licensee
 of this program is prohibited from giving any competitor of
 Gaussian, Inc. access to this program.  By using this program,
 the user acknowledges that Gaussian, Inc. is engaged in the
 business of creating and licensing software in the field of
 computational chemistry and represents and warrants to the
 licensee that it is not a competitor of Gaussian, Inc. and that
 it will not use this program in any manner prohibited above.
 ---------------------------------------------------------------
  

 Cite this work as:
 Gaussian 09, Revision D.01,
 M. J. Frisch, G. W. Trucks, H. B. Schlegel, G. E. Scuseria, 
 M. A. Robb, J. R. Cheeseman, G. Scalmani, V. Barone, B. Mennucci, 
 G. A. Petersson, H. Nakatsuji, M. Caricato, X. Li, H. P. Hratchian, 
 A. F. Izmaylov, J. Bloino, G. Zheng, J. L. Sonnenberg, M. Hada, 
 M. Ehara, K. Toyota, R. Fukuda, J. Hasegawa, M. Ishida, T. Nakajima, 
 Y. Honda, O. Kitao, H. Nakai, T. Vreven, J. A. Montgomery, Jr., 
 J. E. Peralta, F. Ogliaro, M. Bearpark, J. J. Heyd, E. Brothers, 
 K. N. Kudin, V. N. Staroverov, T. Keith, R. Kobayashi, J. Normand, 
 K. Raghavachari, A. Rendell, J. C. Burant, S. S. Iyengar, J. Tomasi, 
 M. Cossi, N. Rega, J. M. Millam, M. Klene, J. E. Knox, J. B. Cross, 
 V. Bakken, C. Adamo, J. Jaramillo, R. Gomperts, R. E. Stratmann, 
 O. Yazyev, A. J. Austin, R. Cammi, C. Pomelli, J. W. Ochterski, 
 R. L. Martin, K. Morokuma, V. G. Zakrzewski, G. A. Voth, 
 P. Salvador, J. J. Dannenberg, S. Dapprich, A. D. Daniels, 
 O. Farkas, J. B. Foresman, J. V. Ortiz, J. Cioslowski, 
 and D. J. Fox, Gaussian, Inc., Wallingford CT, 2013.
 
 ******************************************
 Gaussian 09:  EM64L-G09RevD.01 24-Apr-2013
                17-Nov-2019 
 ******************************************
 -------------------------------------------------------------
 # nmr=giao b3lyp/6-31G* nosymm geom=connectivity guess=huckel
 -------------------------------------------------------------
 1/38=1,57=2/1;
 2/12=2,15=1,17=6,18=5,40=1/2;
 3/5=1,6=6,7=1,11=2,16=1,25=1,30=1,74=-5/1,2,8,3;
 4/11=4/1;
 5/5=2,38=5/2;
 8/6=1,10=90,11=11/1;
 10/13=100,31=1,45=16/2;
 6/7=2,8=2,9=2,10=2,28=1/1;
 99/9=1/99;
 -----
 input
 -----
 Symbolic Z-matrix:
 Charge =  0 Multiplicity = 1
 H                     0.       -2.48235   0. 
 C                     0.        1.39525   0. 
 C                     1.20832   0.69762   0. 
 C                     1.20832  -0.69763   0. 
 C                     0.       -1.39525   0. 
 C                    -1.20832  -0.69763   0. 
 C                    -1.20832   0.69762   0. 
 H                     0.        2.48236   0. 
 H                     2.14979   1.24118   0. 
 H                     2.14979  -1.24118   0. 
 H                    -2.14979  -1.24118   0. 
 H                    -2.14979   1.24118   0. 
 Bq                   -3.       -3.        1. 
 Bq                   -2.87755  -3.        1. 
 Bq                   -2.7551   -3.        1. 
 Bq                   -2.63265  -3.        1. 
 Bq                   -2.5102   -3.        1. 
 Bq                   -2.38776  -3.        1. 
 Bq                   -2.26531  -3.        1. 
 Bq                   -2.14286  -3.        1. 
 Bq                   -2.02041  -3.        1. 
 Bq                   -1.89796  -3.        1. 
 Bq                   -1.77551  -3.        1. 
 Bq                   -1.65306  -3.        1. 
 Bq                   -1.53061  -3.        1. 
 Bq                   -1.40816  -3.        1. 
 Bq                   -1.28571  -3.        1. 
 Bq                   -1.16327  -3.        1. 
 Bq                   -1.04082  -3.        1. 
 Bq                   -0.91837  -3.        1. 
 Bq                   -0.79592  -3.        1. 
 Bq                   -0.67347  -3.        1. 
 Bq                   -0.55102  -3.        1. 
 Bq                   -0.42857  -3.        1. 
 Bq                   -0.30612  -3.        1. 
 Bq                   -0.18367  -3.        1. 
 Bq                   -0.06122  -3.        1. 
 Bq                    0.06122  -3.        1. 
 Bq                    0.18367  -3.        1. 
 Bq                    0.30612  -3.        1. 
 Bq                    0.42857  -3.        1. 
 Bq                    0.55102  -3.        1. 
 Bq                    0.67347  -3.        1. 
 Bq                    0.79592  -3.        1. 
 Bq                    0.91837  -3.        1. 
 Bq                    1.04082  -3.        1. 
 Bq                    1.16327  -3.        1. 
 Bq                    1.28571  -3.        1. 
 Bq                    1.40816  -3.        1. 
 Bq                    1.53061  -3.        1. 
 Bq                    1.65306  -3.        1. 
 Bq                    1.77551  -3.        1. 
 Bq                    1.89796  -3.        1. 
 Bq                    2.02041  -3.        1. 
 Bq                    2.14286  -3.        1. 
 Bq                    2.26531  -3.        1. 
 Bq                    2.38776  -3.        1. 
 Bq                    2.5102   -3.        1. 
 Bq                    2.63265  -3.        1. 
 Bq                    2.7551   -3.        1. 
 Bq                    2.87755  -3.        1. 
 Bq                    3.       -3.        1. 
 Bq                   -3.       -2.87755   1. 
 Bq                   -2.87755  -2.87755   1. 
 Bq                   -2.7551   -2.87755   1. 
 Bq                   -2.63265  -2.87755   1. 
 Bq                   -2.5102   -2.87755   1. 
 Bq                   -2.38776  -2.87755   1. 
 Bq                   -2.26531  -2.87755   1. 
 Bq                   -2.14286  -2.87755   1. 
 Bq                   -2.02041  -2.87755   1. 
 Bq                   -1.89796  -2.87755   1. 
 Bq                   -1.77551  -2.87755   1. 
 Bq                   -1.65306  -2.87755   1. 
 Bq                   -1.53061  -2.87755   1. 
 Bq                   -1.40816  -2.87755   1. 
 Bq                   -1.28571  -2.87755   1. 
 Bq                   -1.16327  -2.87755   1. 
 Bq                   -1.04082  -2.87755   1. 
 Bq                   -0.91837  -2.87755   1. 
 Bq                   -0.79592  -2.87755   1. 
 Bq                   -0.67347  -2.87755   1. 
 Bq                   -0.55102  -2.87755   1. 
 Bq                   -0.42857  -2.87755   1. 
 Bq                   -0.30612  -2.87755   1. 
 Bq                   -0.18367  -2.87755   1. 
 Bq                   -0.06122  -2.87755   1. 
 Bq                    0.06122  -2.87755   1. 
 Bq                    0.18367  -2.87755   1. 
 Bq                    0.30612  -2.87755   1. 
 Bq                    0.42857  -2.87755   1. 
 Bq                    0.55102  -2.87755   1. 
 Bq                    0.67347  -2.87755   1. 
 Bq                    0.79592  -2.87755   1. 
 Bq                    0.91837  -2.87755   1. 
 Bq                    1.04082  -2.87755   1. 
 Bq                    1.16327  -2.87755   1. 
 Bq                    1.28571  -2.87755   1. 
 Bq                    1.40816  -2.87755   1. 
 Bq                    1.53061  -2.87755   1. 
 Bq                    1.65306  -2.87755   1. 
 Bq                    1.77551  -2.87755   1. 
 Bq                    1.89796  -2.87755   1. 
 Bq                    2.02041  -2.87755   1. 
 Bq                    2.14286  -2.87755   1. 
 Bq                    2.26531  -2.87755   1. 
 Bq                    2.38776  -2.87755   1. 
 Bq                    2.5102   -2.87755   1. 
 Bq                    2.63265  -2.87755   1. 
 Bq                    2.7551   -2.87755   1. 
 Bq                    2.87755  -2.87755   1. 
 Bq                    3.       -2.87755   1. 
 Bq                   -3.       -2.7551    1. 
 Bq                   -2.87755  -2.7551    1. 
 Bq                   -2.7551   -2.7551    1. 
 Bq                   -2.63265  -2.7551    1. 
 Bq                   -2.5102   -2.7551    1. 
 Bq                   -2.38776  -2.7551    1. 
 Bq                   -2.26531  -2.7551    1. 
 Bq                   -2.14286  -2.7551    1. 
 Bq                   -2.02041  -2.7551    1. 
 Bq                   -1.89796  -2.7551    1. 
 Bq                   -1.77551  -2.7551    1. 
 Bq                   -1.65306  -2.7551    1. 
 Bq                   -1.53061  -2.7551    1. 
 Bq                   -1.40816  -2.7551    1. 
 Bq                   -1.28571  -2.7551    1. 
 Bq                   -1.16327  -2.7551    1. 
 Bq                   -1.04082  -2.7551    1. 
 Bq                   -0.91837  -2.7551    1. 
 Bq                   -0.79592  -2.7551    1. 
 Bq                   -0.67347  -2.7551    1. 
 Bq                   -0.55102  -2.7551    1. 
 Bq                   -0.42857  -2.7551    1. 
 Bq                   -0.30612  -2.7551    1. 
 Bq                   -0.18367  -2.7551    1. 
 Bq                   -0.06122  -2.7551    1. 
 Bq                    0.06122  -2.7551    1. 
 Bq                    0.18367  -2.7551    1. 
 Bq                    0.30612  -2.7551    1. 
 Bq                    0.42857  -2.7551    1. 
 Bq                    0.55102  -2.7551    1. 
 Bq                    0.67347  -2.7551    1. 
 Bq                    0.79592  -2.7551    1. 
 Bq                    0.91837  -2.7551    1. 
 Bq                    1.04082  -2.7551    1. 
 Bq                    1.16327  -2.7551    1. 
 Bq                    1.28571  -2.7551    1. 
 Bq                    1.40816  -2.7551    1. 
 Bq                    1.53061  -2.7551    1. 
 Bq                    1.65306  -2.7551    1. 
 Bq                    1.77551  -2.7551    1. 
 Bq                    1.89796  -2.7551    1. 
 Bq                    2.02041  -2.7551    1. 
 Bq                    2.14286  -2.7551    1. 
 Bq                    2.26531  -2.7551    1. 
 Bq                    2.38776  -2.7551    1. 
 Bq                    2.5102   -2.7551    1. 
 Bq                    2.63265  -2.7551    1. 
 Bq                    2.7551   -2.7551    1. 
 Bq                    2.87755  -2.7551    1. 
 Bq                    3.       -2.7551    1. 
 Bq                   -3.       -2.63265   1. 
 Bq                   -2.87755  -2.63265   1. 
 Bq                   -2.7551   -2.63265   1. 
 Bq                   -2.63265  -2.63265   1. 
 Bq                   -2.5102   -2.63265   1. 
 Bq                   -2.38776  -2.63265   1. 
 Bq                   -2.26531  -2.63265   1. 
 Bq                   -2.14286  -2.63265   1. 
 Bq                   -2.02041  -2.63265   1. 
 Bq                   -1.89796  -2.63265   1. 
 Bq                   -1.77551  -2.63265   1. 
 Bq                   -1.65306  -2.63265   1. 
 Bq                   -1.53061  -2.63265   1. 
 Bq                   -1.40816  -2.63265   1. 
 Bq                   -1.28571  -2.63265   1. 
 Bq                   -1.16327  -2.63265   1. 
 Bq                   -1.04082  -2.63265   1. 
 Bq                   -0.91837  -2.63265   1. 
 Bq                   -0.79592  -2.63265   1. 
 Bq                   -0.67347  -2.63265   1. 
 Bq                   -0.55102  -2.63265   1. 
 Bq                   -0.42857  -2.63265   1. 
 Bq                   -0.30612  -2.63265   1. 
 Bq                   -0.18367  -2.63265   1. 
 Bq                   -0.06122  -2.63265   1. 
 Bq                    0.06122  -2.63265   1. 
 Bq                    0.18367  -2.63265   1. 
 Bq                    0.30612  -2.63265   1. 
 Bq                    0.42857  -2.63265   1. 
 Bq                    0.55102  -2.63265   1. 
 Bq                    0.67347  -2.63265   1. 
 Bq                    0.79592  -2.63265   1. 
 Bq                    0.91837  -2.63265   1. 
 Bq                    1.04082  -2.63265   1. 
 Bq                    1.16327  -2.63265   1. 
 Bq                    1.28571  -2.63265   1. 
 Bq                    1.40816  -2.63265   1. 
 Bq                    1.53061  -2.63265   1. 
 Bq                    1.65306  -2.63265   1. 
 Bq                    1.77551  -2.63265   1. 
 Bq                    1.89796  -2.63265   1. 
 Bq                    2.02041  -2.63265   1. 
 Bq                    2.14286  -2.63265   1. 
 Bq                    2.26531  -2.63265   1. 
 Bq                    2.38776  -2.63265   1. 
 Bq                    2.5102   -2.63265   1. 
 Bq                    2.63265  -2.63265   1. 
 Bq                    2.7551   -2.63265   1. 
 Bq                    2.87755  -2.63265   1. 
 Bq                    3.       -2.63265   1. 
 Bq                   -3.       -2.5102    1. 
 Bq                   -2.87755  -2.5102    1. 
 Bq                   -2.7551   -2.5102    1. 
 Bq                   -2.63265  -2.5102    1. 
 Bq                   -2.5102   -2.5102    1. 
 Bq                   -2.38776  -2.5102    1. 
 Bq                   -2.26531  -2.5102    1. 
 Bq                   -2.14286  -2.5102    1. 
 Bq                   -2.02041  -2.5102    1. 
 Bq                   -1.89796  -2.5102    1. 
 Bq                   -1.77551  -2.5102    1. 
 Bq                   -1.65306  -2.5102    1. 
 Bq                   -1.53061  -2.5102    1. 
 Bq                   -1.40816  -2.5102    1. 
 Bq                   -1.28571  -2.5102    1. 
 Bq                   -1.16327  -2.5102    1. 
 Bq                   -1.04082  -2.5102    1. 
 Bq                   -0.91837  -2.5102    1. 
 Bq                   -0.79592  -2.5102    1. 
 Bq                   -0.67347  -2.5102    1. 
 Bq                   -0.55102  -2.5102    1. 
 Bq                   -0.42857  -2.5102    1. 
 Bq                   -0.30612  -2.5102    1. 
 Bq                   -0.18367  -2.5102    1. 
 Bq                   -0.06122  -2.5102    1. 
 Bq                    0.06122  -2.5102    1. 
 Bq                    0.18367  -2.5102    1. 
 Bq                    0.30612  -2.5102    1. 
 Bq                    0.42857  -2.5102    1. 
 Bq                    0.55102  -2.5102    1. 
 Bq                    0.67347  -2.5102    1. 
 Bq                    0.79592  -2.5102    1. 
 Bq                    0.91837  -2.5102    1. 
 Bq                    1.04082  -2.5102    1. 
 Bq                    1.16327  -2.5102    1. 
 Bq                    1.28571  -2.5102    1. 
 Bq                    1.40816  -2.5102    1. 
 Bq                    1.53061  -2.5102    1. 
 Bq                    1.65306  -2.5102    1. 
 Bq                    1.77551  -2.5102    1. 
 Bq                    1.89796  -2.5102    1. 
 Bq                    2.02041  -2.5102    1. 
 Bq                    2.14286  -2.5102    1. 
 Bq                    2.26531  -2.5102    1. 
 Bq                    2.38776  -2.5102    1. 
 Bq                    2.5102   -2.5102    1. 
 Bq                    2.63265  -2.5102    1. 
 Bq                    2.7551   -2.5102    1. 
 Bq                    2.87755  -2.5102    1. 
 Bq                    3.       -2.5102    1. 
 Bq                   -3.       -2.38776   1. 
 Bq                   -2.87755  -2.38776   1. 
 Bq                   -2.7551   -2.38776   1. 
 Bq                   -2.63265  -2.38776   1. 
 Bq                   -2.5102   -2.38776   1. 
 Bq                   -2.38776  -2.38776   1. 
 Bq                   -2.26531  -2.38776   1. 
 Bq                   -2.14286  -2.38776   1. 
 Bq                   -2.02041  -2.38776   1. 
 Bq                   -1.89796  -2.38776   1. 
 Bq                   -1.77551  -2.38776   1. 
 Bq                   -1.65306  -2.38776   1. 
 Bq                   -1.53061  -2.38776   1. 
 Bq                   -1.40816  -2.38776   1. 
 Bq                   -1.28571  -2.38776   1. 
 Bq                   -1.16327  -2.38776   1. 
 Bq                   -1.04082  -2.38776   1. 
 Bq                   -0.91837  -2.38776   1. 
 Bq                   -0.79592  -2.38776   1. 
 Bq                   -0.67347  -2.38776   1. 
 Bq                   -0.55102  -2.38776   1. 
 Bq                   -0.42857  -2.38776   1. 
 Bq                   -0.30612  -2.38776   1. 
 Bq                   -0.18367  -2.38776   1. 
 Bq                   -0.06122  -2.38776   1. 
 Bq                    0.06122  -2.38776   1. 
 Bq                    0.18367  -2.38776   1. 
 Bq                    0.30612  -2.38776   1. 
 Bq                    0.42857  -2.38776   1. 
 Bq                    0.55102  -2.38776   1. 
 Bq                    0.67347  -2.38776   1. 
 Bq                    0.79592  -2.38776   1. 
 Bq                    0.91837  -2.38776   1. 
 Bq                    1.04082  -2.38776   1. 
 Bq                    1.16327  -2.38776   1. 
 Bq                    1.28571  -2.38776   1. 
 Bq                    1.40816  -2.38776   1. 
 Bq                    1.53061  -2.38776   1. 
 Bq                    1.65306  -2.38776   1. 
 Bq                    1.77551  -2.38776   1. 
 Bq                    1.89796  -2.38776   1. 
 Bq                    2.02041  -2.38776   1. 
 Bq                    2.14286  -2.38776   1. 
 Bq                    2.26531  -2.38776   1. 
 Bq                    2.38776  -2.38776   1. 
 Bq                    2.5102   -2.38776   1. 
 Bq                    2.63265  -2.38776   1. 
 Bq                    2.7551   -2.38776   1. 
 Bq                    2.87755  -2.38776   1. 
 Bq                    3.       -2.38776   1. 
 Bq                   -3.       -2.26531   1. 
 Bq                   -2.87755  -2.26531   1. 
 Bq                   -2.7551   -2.26531   1. 
 Bq                   -2.63265  -2.26531   1. 
 Bq                   -2.5102   -2.26531   1. 
 Bq                   -2.38776  -2.26531   1. 
 Bq                   -2.26531  -2.26531   1. 
 Bq                   -2.14286  -2.26531   1. 
 Bq                   -2.02041  -2.26531   1. 
 Bq                   -1.89796  -2.26531   1. 
 Bq                   -1.77551  -2.26531   1. 
 Bq                   -1.65306  -2.26531   1. 
 Bq                   -1.53061  -2.26531   1. 
 Bq                   -1.40816  -2.26531   1. 
 Bq                   -1.28571  -2.26531   1. 
 Bq                   -1.16327  -2.26531   1. 
 Bq                   -1.04082  -2.26531   1. 
 Bq                   -0.91837  -2.26531   1. 
 Bq                   -0.79592  -2.26531   1. 
 Bq                   -0.67347  -2.26531   1. 
 Bq                   -0.55102  -2.26531   1. 
 Bq                   -0.42857  -2.26531   1. 
 Bq                   -0.30612  -2.26531   1. 
 Bq                   -0.18367  -2.26531   1. 
 Bq                   -0.06122  -2.26531   1. 
 Bq                    0.06122  -2.26531   1. 
 Bq                    0.18367  -2.26531   1. 
 Bq                    0.30612  -2.26531   1. 
 Bq                    0.42857  -2.26531   1. 
 Bq                    0.55102  -2.26531   1. 
 Bq                    0.67347  -2.26531   1. 
 Bq                    0.79592  -2.26531   1. 
 Bq                    0.91837  -2.26531   1. 
 Bq                    1.04082  -2.26531   1. 
 Bq                    1.16327  -2.26531   1. 
 Bq                    1.28571  -2.26531   1. 
 Bq                    1.40816  -2.26531   1. 
 Bq                    1.53061  -2.26531   1. 
 Bq                    1.65306  -2.26531   1. 
 Bq                    1.77551  -2.26531   1. 
 Bq                    1.89796  -2.26531   1. 
 Bq                    2.02041  -2.26531   1. 
 Bq                    2.14286  -2.26531   1. 
 Bq                    2.26531  -2.26531   1. 
 Bq                    2.38776  -2.26531   1. 
 Bq                    2.5102   -2.26531   1. 
 Bq                    2.63265  -2.26531   1. 
 Bq                    2.7551   -2.26531   1. 
 Bq                    2.87755  -2.26531   1. 
 Bq                    3.       -2.26531   1. 
 Bq                   -3.       -2.14286   1. 
 Bq                   -2.87755  -2.14286   1. 
 Bq                   -2.7551   -2.14286   1. 
 Bq                   -2.63265  -2.14286   1. 
 Bq                   -2.5102   -2.14286   1. 
 Bq                   -2.38776  -2.14286   1. 
 Bq                   -2.26531  -2.14286   1. 
 Bq                   -2.14286  -2.14286   1. 
 Bq                   -2.02041  -2.14286   1. 
 Bq                   -1.89796  -2.14286   1. 
 Bq                   -1.77551  -2.14286   1. 
 Bq                   -1.65306  -2.14286   1. 
 Bq                   -1.53061  -2.14286   1. 
 Bq                   -1.40816  -2.14286   1. 
 Bq                   -1.28571  -2.14286   1. 
 Bq                   -1.16327  -2.14286   1. 
 Bq                   -1.04082  -2.14286   1. 
 Bq                   -0.91837  -2.14286   1. 
 Bq                   -0.79592  -2.14286   1. 
 Bq                   -0.67347  -2.14286   1. 
 Bq                   -0.55102  -2.14286   1. 
 Bq                   -0.42857  -2.14286   1. 
 Bq                   -0.30612  -2.14286   1. 
 Bq                   -0.18367  -2.14286   1. 
 Bq                   -0.06122  -2.14286   1. 
 Bq                    0.06122  -2.14286   1. 
 Bq                    0.18367  -2.14286   1. 
 Bq                    0.30612  -2.14286   1. 
 Bq                    0.42857  -2.14286   1. 
 Bq                    0.55102  -2.14286   1. 
 Bq                    0.67347  -2.14286   1. 
 Bq                    0.79592  -2.14286   1. 
 Bq                    0.91837  -2.14286   1. 
 Bq                    1.04082  -2.14286   1. 
 Bq                    1.16327  -2.14286   1. 
 Bq                    1.28571  -2.14286   1. 
 Bq                    1.40816  -2.14286   1. 
 Bq                    1.53061  -2.14286   1. 
 Bq                    1.65306  -2.14286   1. 
 Bq                    1.77551  -2.14286   1. 
 Bq                    1.89796  -2.14286   1. 
 Bq                    2.02041  -2.14286   1. 
 Bq                    2.14286  -2.14286   1. 
 Bq                    2.26531  -2.14286   1. 
 Bq                    2.38776  -2.14286   1. 
 Bq                    2.5102   -2.14286   1. 
 Bq                    2.63265  -2.14286   1. 
 Bq                    2.7551   -2.14286   1. 
 Bq                    2.87755  -2.14286   1. 
 Bq                    3.       -2.14286   1. 
 Bq                   -3.       -2.02041   1. 
 Bq                   -2.87755  -2.02041   1. 
 Bq                   -2.7551   -2.02041   1. 
 Bq                   -2.63265  -2.02041   1. 
 Bq                   -2.5102   -2.02041   1. 
 Bq                   -2.38776  -2.02041   1. 
 Bq                   -2.26531  -2.02041   1. 
 Bq                   -2.14286  -2.02041   1. 
 Bq                   -2.02041  -2.02041   1. 
 Bq                   -1.89796  -2.02041   1. 
 Bq                   -1.77551  -2.02041   1. 
 Bq                   -1.65306  -2.02041   1. 
 Bq                   -1.53061  -2.02041   1. 
 Bq                   -1.40816  -2.02041   1. 
 Bq                   -1.28571  -2.02041   1. 
 Bq                   -1.16327  -2.02041   1. 
 Bq                   -1.04082  -2.02041   1. 
 Bq                   -0.91837  -2.02041   1. 
 Bq                   -0.79592  -2.02041   1. 
 Bq                   -0.67347  -2.02041   1. 
 Bq                   -0.55102  -2.02041   1. 
 Bq                   -0.42857  -2.02041   1. 
 Bq                   -0.30612  -2.02041   1. 
 Bq                   -0.18367  -2.02041   1. 
 Bq                   -0.06122  -2.02041   1. 
 Bq                    0.06122  -2.02041   1. 
 Bq                    0.18367  -2.02041   1. 
 Bq                    0.30612  -2.02041   1. 
 Bq                    0.42857  -2.02041   1. 
 Bq                    0.55102  -2.02041   1. 
 Bq                    0.67347  -2.02041   1. 
 Bq                    0.79592  -2.02041   1. 
 Bq                    0.91837  -2.02041   1. 
 Bq                    1.04082  -2.02041   1. 
 Bq                    1.16327  -2.02041   1. 
 Bq                    1.28571  -2.02041   1. 
 Bq                    1.40816  -2.02041   1. 
 Bq                    1.53061  -2.02041   1. 
 Bq                    1.65306  -2.02041   1. 
 Bq                    1.77551  -2.02041   1. 
 Bq                    1.89796  -2.02041   1. 
 Bq                    2.02041  -2.02041   1. 
 Bq                    2.14286  -2.02041   1. 
 Bq                    2.26531  -2.02041   1. 
 Bq                    2.38776  -2.02041   1. 
 Bq                    2.5102   -2.02041   1. 
 Bq                    2.63265  -2.02041   1. 
 Bq                    2.7551   -2.02041   1. 
 Bq                    2.87755  -2.02041   1. 
 Bq                    3.       -2.02041   1. 
 Bq                   -3.       -1.89796   1. 
 Bq                   -2.87755  -1.89796   1. 
 Bq                   -2.7551   -1.89796   1. 
 Bq                   -2.63265  -1.89796   1. 
 Bq                   -2.5102   -1.89796   1. 
 Bq                   -2.38776  -1.89796   1. 
 Bq                   -2.26531  -1.89796   1. 
 Bq                   -2.14286  -1.89796   1. 
 Bq                   -2.02041  -1.89796   1. 
 Bq                   -1.89796  -1.89796   1. 
 Bq                   -1.77551  -1.89796   1. 
 Bq                   -1.65306  -1.89796   1. 
 Bq                   -1.53061  -1.89796   1. 
 Bq                   -1.40816  -1.89796   1. 
 Bq                   -1.28571  -1.89796   1. 
 Bq                   -1.16327  -1.89796   1. 
 Bq                   -1.04082  -1.89796   1. 
 Bq                   -0.91837  -1.89796   1. 
 Bq                   -0.79592  -1.89796   1. 
 Bq                   -0.67347  -1.89796   1. 
 Bq                   -0.55102  -1.89796   1. 
 Bq                   -0.42857  -1.89796   1. 
 Bq                   -0.30612  -1.89796   1. 
 Bq                   -0.18367  -1.89796   1. 
 Bq                   -0.06122  -1.89796   1. 
 Bq                    0.06122  -1.89796   1. 
 Bq                    0.18367  -1.89796   1. 
 Bq                    0.30612  -1.89796   1. 
 Bq                    0.42857  -1.89796   1. 
 Bq                    0.55102  -1.89796   1. 
 Bq                    0.67347  -1.89796   1. 
 Bq                    0.79592  -1.89796   1. 
 Bq                    0.91837  -1.89796   1. 
 Bq                    1.04082  -1.89796   1. 
 Bq                    1.16327  -1.89796   1. 
 Bq                    1.28571  -1.89796   1. 
 Bq                    1.40816  -1.89796   1. 
 Bq                    1.53061  -1.89796   1. 
 Bq                    1.65306  -1.89796   1. 
 Bq                    1.77551  -1.89796   1. 
 Bq                    1.89796  -1.89796   1. 
 Bq                    2.02041  -1.89796   1. 
 Bq                    2.14286  -1.89796   1. 
 Bq                    2.26531  -1.89796   1. 
 Bq                    2.38776  -1.89796   1. 
 Bq                    2.5102   -1.89796   1. 
 Bq                    2.63265  -1.89796   1. 
 Bq                    2.7551   -1.89796   1. 
 Bq                    2.87755  -1.89796   1. 
 Bq                    3.       -1.89796   1. 
 Bq                   -3.       -1.77551   1. 
 Bq                   -2.87755  -1.77551   1. 
 Bq                   -2.7551   -1.77551   1. 
 Bq                   -2.63265  -1.77551   1. 
 Bq                   -2.5102   -1.77551   1. 
 Bq                   -2.38776  -1.77551   1. 
 Bq                   -2.26531  -1.77551   1. 
 Bq                   -2.14286  -1.77551   1. 
 Bq                   -2.02041  -1.77551   1. 
 Bq                   -1.89796  -1.77551   1. 
 Bq                   -1.77551  -1.77551   1. 
 Bq                   -1.65306  -1.77551   1. 
 Bq                   -1.53061  -1.77551   1. 
 Bq                   -1.40816  -1.77551   1. 
 Bq                   -1.28571  -1.77551   1. 
 Bq                   -1.16327  -1.77551   1. 
 Bq                   -1.04082  -1.77551   1. 
 Bq                   -0.91837  -1.77551   1. 
 Bq                   -0.79592  -1.77551   1. 
 Bq                   -0.67347  -1.77551   1. 
 Bq                   -0.55102  -1.77551   1. 
 Bq                   -0.42857  -1.77551   1. 
 Bq                   -0.30612  -1.77551   1. 
 Bq                   -0.18367  -1.77551   1. 
 Bq                   -0.06122  -1.77551   1. 
 Bq                    0.06122  -1.77551   1. 
 Bq                    0.18367  -1.77551   1. 
 Bq                    0.30612  -1.77551   1. 
 Bq                    0.42857  -1.77551   1. 
 Bq                    0.55102  -1.77551   1. 
 Bq                    0.67347  -1.77551   1. 
 Bq                    0.79592  -1.77551   1. 
 Bq                    0.91837  -1.77551   1. 
 Bq                    1.04082  -1.77551   1. 
 Bq                    1.16327  -1.77551   1. 
 Bq                    1.28571  -1.77551   1. 
 Bq                    1.40816  -1.77551   1. 
 Bq                    1.53061  -1.77551   1. 
 Bq                    1.65306  -1.77551   1. 
 Bq                    1.77551  -1.77551   1. 
 Bq                    1.89796  -1.77551   1. 
 Bq                    2.02041  -1.77551   1. 
 Bq                    2.14286  -1.77551   1. 
 Bq                    2.26531  -1.77551   1. 
 Bq                    2.38776  -1.77551   1. 
 Bq                    2.5102   -1.77551   1. 
 Bq                    2.63265  -1.77551   1. 
 Bq                    2.7551   -1.77551   1. 
 Bq                    2.87755  -1.77551   1. 
 Bq                    3.       -1.77551   1. 
 Bq                   -3.       -1.65306   1. 
 Bq                   -2.87755  -1.65306   1. 
 Bq                   -2.7551   -1.65306   1. 
 Bq                   -2.63265  -1.65306   1. 
 Bq                   -2.5102   -1.65306   1. 
 Bq                   -2.38776  -1.65306   1. 
 Bq                   -2.26531  -1.65306   1. 
 Bq                   -2.14286  -1.65306   1. 
 Bq                   -2.02041  -1.65306   1. 
 Bq                   -1.89796  -1.65306   1. 
 Bq                   -1.77551  -1.65306   1. 
 Bq                   -1.65306  -1.65306   1. 
 Bq                   -1.53061  -1.65306   1. 
 Bq                   -1.40816  -1.65306   1. 
 Bq                   -1.28571  -1.65306   1. 
 Bq                   -1.16327  -1.65306   1. 
 Bq                   -1.04082  -1.65306   1. 
 Bq                   -0.91837  -1.65306   1. 
 Bq                   -0.79592  -1.65306   1. 
 Bq                   -0.67347  -1.65306   1. 
 Bq                   -0.55102  -1.65306   1. 
 Bq                   -0.42857  -1.65306   1. 
 Bq                   -0.30612  -1.65306   1. 
 Bq                   -0.18367  -1.65306   1. 
 Bq                   -0.06122  -1.65306   1. 
 Bq                    0.06122  -1.65306   1. 
 Bq                    0.18367  -1.65306   1. 
 Bq                    0.30612  -1.65306   1. 
 Bq                    0.42857  -1.65306   1. 
 Bq                    0.55102  -1.65306   1. 
 Bq                    0.67347  -1.65306   1. 
 Bq                    0.79592  -1.65306   1. 
 Bq                    0.91837  -1.65306   1. 
 Bq                    1.04082  -1.65306   1. 
 Bq                    1.16327  -1.65306   1. 
 Bq                    1.28571  -1.65306   1. 
 Bq                    1.40816  -1.65306   1. 
 Bq                    1.53061  -1.65306   1. 
 Bq                    1.65306  -1.65306   1. 
 Bq                    1.77551  -1.65306   1. 
 Bq                    1.89796  -1.65306   1. 
 Bq                    2.02041  -1.65306   1. 
 Bq                    2.14286  -1.65306   1. 
 Bq                    2.26531  -1.65306   1. 
 Bq                    2.38776  -1.65306   1. 
 Bq                    2.5102   -1.65306   1. 
 Bq                    2.63265  -1.65306   1. 
 Bq                    2.7551   -1.65306   1. 
 Bq                    2.87755  -1.65306   1. 
 Bq                    3.       -1.65306   1. 
 Bq                   -3.       -1.53061   1. 
 Bq                   -2.87755  -1.53061   1. 
 Bq                   -2.7551   -1.53061   1. 
 Bq                   -2.63265  -1.53061   1. 
 Bq                   -2.5102   -1.53061   1. 
 Bq                   -2.38776  -1.53061   1. 
 Bq                   -2.26531  -1.53061   1. 
 Bq                   -2.14286  -1.53061   1. 
 Bq                   -2.02041  -1.53061   1. 
 Bq                   -1.89796  -1.53061   1. 
 Bq                   -1.77551  -1.53061   1. 
 Bq                   -1.65306  -1.53061   1. 
 Bq                   -1.53061  -1.53061   1. 
 Bq                   -1.40816  -1.53061   1. 
 Bq                   -1.28571  -1.53061   1. 
 Bq                   -1.16327  -1.53061   1. 
 Bq                   -1.04082  -1.53061   1. 
 Bq                   -0.91837  -1.53061   1. 
 Bq                   -0.79592  -1.53061   1. 
 Bq                   -0.67347  -1.53061   1. 
 Bq                   -0.55102  -1.53061   1. 
 Bq                   -0.42857  -1.53061   1. 
 Bq                   -0.30612  -1.53061   1. 
 Bq                   -0.18367  -1.53061   1. 
 Bq                   -0.06122  -1.53061   1. 
 Bq                    0.06122  -1.53061   1. 
 Bq                    0.18367  -1.53061   1. 
 Bq                    0.30612  -1.53061   1. 
 Bq                    0.42857  -1.53061   1. 
 Bq                    0.55102  -1.53061   1. 
 Bq                    0.67347  -1.53061   1. 
 Bq                    0.79592  -1.53061   1. 
 Bq                    0.91837  -1.53061   1. 
 Bq                    1.04082  -1.53061   1. 
 Bq                    1.16327  -1.53061   1. 
 Bq                    1.28571  -1.53061   1. 
 Bq                    1.40816  -1.53061   1. 
 Bq                    1.53061  -1.53061   1. 
 Bq                    1.65306  -1.53061   1. 
 Bq                    1.77551  -1.53061   1. 
 Bq                    1.89796  -1.53061   1. 
 Bq                    2.02041  -1.53061   1. 
 Bq                    2.14286  -1.53061   1. 
 Bq                    2.26531  -1.53061   1. 
 Bq                    2.38776  -1.53061   1. 
 Bq                    2.5102   -1.53061   1. 
 Bq                    2.63265  -1.53061   1. 
 Bq                    2.7551   -1.53061   1. 
 Bq                    2.87755  -1.53061   1. 
 Bq                    3.       -1.53061   1. 
 Bq                   -3.       -1.40816   1. 
 Bq                   -2.87755  -1.40816   1. 
 Bq                   -2.7551   -1.40816   1. 
 Bq                   -2.63265  -1.40816   1. 
 Bq                   -2.5102   -1.40816   1. 
 Bq                   -2.38776  -1.40816   1. 
 Bq                   -2.26531  -1.40816   1. 
 Bq                   -2.14286  -1.40816   1. 
 Bq                   -2.02041  -1.40816   1. 
 Bq                   -1.89796  -1.40816   1. 
 Bq                   -1.77551  -1.40816   1. 
 Bq                   -1.65306  -1.40816   1. 
 Bq                   -1.53061  -1.40816   1. 
 Bq                   -1.40816  -1.40816   1. 
 Bq                   -1.28571  -1.40816   1. 
 Bq                   -1.16327  -1.40816   1. 
 Bq                   -1.04082  -1.40816   1. 
 Bq                   -0.91837  -1.40816   1. 
 Bq                   -0.79592  -1.40816   1. 
 Bq                   -0.67347  -1.40816   1. 
 Bq                   -0.55102  -1.40816   1. 
 Bq                   -0.42857  -1.40816   1. 
 Bq                   -0.30612  -1.40816   1. 
 Bq                   -0.18367  -1.40816   1. 
 Bq                   -0.06122  -1.40816   1. 
 Bq                    0.06122  -1.40816   1. 
 Bq                    0.18367  -1.40816   1. 
 Bq                    0.30612  -1.40816   1. 
 Bq                    0.42857  -1.40816   1. 
 Bq                    0.55102  -1.40816   1. 
 Bq                    0.67347  -1.40816   1. 
 Bq                    0.79592  -1.40816   1. 
 Bq                    0.91837  -1.40816   1. 
 Bq                    1.04082  -1.40816   1. 
 Bq                    1.16327  -1.40816   1. 
 Bq                    1.28571  -1.40816   1. 
 Bq                    1.40816  -1.40816   1. 
 Bq                    1.53061  -1.40816   1. 
 Bq                    1.65306  -1.40816   1. 
 Bq                    1.77551  -1.40816   1. 
 Bq                    1.89796  -1.40816   1. 
 Bq                    2.02041  -1.40816   1. 
 Bq                    2.14286  -1.40816   1. 
 Bq                    2.26531  -1.40816   1. 
 Bq                    2.38776  -1.40816   1. 
 Bq                    2.5102   -1.40816   1. 
 Bq                    2.63265  -1.40816   1. 
 Bq                    2.7551   -1.40816   1. 
 Bq                    2.87755  -1.40816   1. 
 Bq                    3.       -1.40816   1. 
 Bq                   -3.       -1.28571   1. 
 Bq                   -2.87755  -1.28571   1. 
 Bq                   -2.7551   -1.28571   1. 
 Bq                   -2.63265  -1.28571   1. 
 Bq                   -2.5102   -1.28571   1. 
 Bq                   -2.38776  -1.28571   1. 
 Bq                   -2.26531  -1.28571   1. 
 Bq                   -2.14286  -1.28571   1. 
 Bq                   -2.02041  -1.28571   1. 
 Bq                   -1.89796  -1.28571   1. 
 Bq                   -1.77551  -1.28571   1. 
 Bq                   -1.65306  -1.28571   1. 
 Bq                   -1.53061  -1.28571   1. 
 Bq                   -1.40816  -1.28571   1. 
 Bq                   -1.28571  -1.28571   1. 
 Bq                   -1.16327  -1.28571   1. 
 Bq                   -1.04082  -1.28571   1. 
 Bq                   -0.91837  -1.28571   1. 
 Bq                   -0.79592  -1.28571   1. 
 Bq                   -0.67347  -1.28571   1. 
 Bq                   -0.55102  -1.28571   1. 
 Bq                   -0.42857  -1.28571   1. 
 Bq                   -0.30612  -1.28571   1. 
 Bq                   -0.18367  -1.28571   1. 
 Bq                   -0.06122  -1.28571   1. 
 Bq                    0.06122  -1.28571   1. 
 Bq                    0.18367  -1.28571   1. 
 Bq                    0.30612  -1.28571   1. 
 Bq                    0.42857  -1.28571   1. 
 Bq                    0.55102  -1.28571   1. 
 Bq                    0.67347  -1.28571   1. 
 Bq                    0.79592  -1.28571   1. 
 Bq                    0.91837  -1.28571   1. 
 Bq                    1.04082  -1.28571   1. 
 Bq                    1.16327  -1.28571   1. 
 Bq                    1.28571  -1.28571   1. 
 Bq                    1.40816  -1.28571   1. 
 Bq                    1.53061  -1.28571   1. 
 Bq                    1.65306  -1.28571   1. 
 Bq                    1.77551  -1.28571   1. 
 Bq                    1.89796  -1.28571   1. 
 Bq                    2.02041  -1.28571   1. 
 Bq                    2.14286  -1.28571   1. 
 Bq                    2.26531  -1.28571   1. 
 Bq                    2.38776  -1.28571   1. 
 Bq                    2.5102   -1.28571   1. 
 Bq                    2.63265  -1.28571   1. 
 Bq                    2.7551   -1.28571   1. 
 Bq                    2.87755  -1.28571   1. 
 Bq                    3.       -1.28571   1. 
 Bq                   -3.       -1.16327   1. 
 Bq                   -2.87755  -1.16327   1. 
 Bq                   -2.7551   -1.16327   1. 
 Bq                   -2.63265  -1.16327   1. 
 Bq                   -2.5102   -1.16327   1. 
 Bq                   -2.38776  -1.16327   1. 
 Bq                   -2.26531  -1.16327   1. 
 Bq                   -2.14286  -1.16327   1. 
 Bq                   -2.02041  -1.16327   1. 
 Bq                   -1.89796  -1.16327   1. 
 Bq                   -1.77551  -1.16327   1. 
 Bq                   -1.65306  -1.16327   1. 
 Bq                   -1.53061  -1.16327   1. 
 Bq                   -1.40816  -1.16327   1. 
 Bq                   -1.28571  -1.16327   1. 
 Bq                   -1.16327  -1.16327   1. 
 Bq                   -1.04082  -1.16327   1. 
 Bq                   -0.91837  -1.16327   1. 
 Bq                   -0.79592  -1.16327   1. 
 Bq                   -0.67347  -1.16327   1. 
 Bq                   -0.55102  -1.16327   1. 
 Bq                   -0.42857  -1.16327   1. 
 Bq                   -0.30612  -1.16327   1. 
 Bq                   -0.18367  -1.16327   1. 
 Bq                   -0.06122  -1.16327   1. 
 Bq                    0.06122  -1.16327   1. 
 Bq                    0.18367  -1.16327   1. 
 Bq                    0.30612  -1.16327   1. 
 Bq                    0.42857  -1.16327   1. 
 Bq                    0.55102  -1.16327   1. 
 Bq                    0.67347  -1.16327   1. 
 Bq                    0.79592  -1.16327   1. 
 Bq                    0.91837  -1.16327   1. 
 Bq                    1.04082  -1.16327   1. 
 Bq                    1.16327  -1.16327   1. 
 Bq                    1.28571  -1.16327   1. 
 Bq                    1.40816  -1.16327   1. 
 Bq                    1.53061  -1.16327   1. 
 Bq                    1.65306  -1.16327   1. 
 Bq                    1.77551  -1.16327   1. 
 Bq                    1.89796  -1.16327   1. 
 Bq                    2.02041  -1.16327   1. 
 Bq                    2.14286  -1.16327   1. 
 Bq                    2.26531  -1.16327   1. 
 Bq                    2.38776  -1.16327   1. 
 Bq                    2.5102   -1.16327   1. 
 Bq                    2.63265  -1.16327   1. 
 Bq                    2.7551   -1.16327   1. 
 Bq                    2.87755  -1.16327   1. 
 Bq                    3.       -1.16327   1. 
 Bq                   -3.       -1.04082   1. 
 Bq                   -2.87755  -1.04082   1. 
 Bq                   -2.7551   -1.04082   1. 
 Bq                   -2.63265  -1.04082   1. 
 Bq                   -2.5102   -1.04082   1. 
 Bq                   -2.38776  -1.04082   1. 
 Bq                   -2.26531  -1.04082   1. 
 Bq                   -2.14286  -1.04082   1. 
 Bq                   -2.02041  -1.04082   1. 
 Bq                   -1.89796  -1.04082   1. 
 Bq                   -1.77551  -1.04082   1. 
 Bq                   -1.65306  -1.04082   1. 
 Bq                   -1.53061  -1.04082   1. 
 Bq                   -1.40816  -1.04082   1. 
 Bq                   -1.28571  -1.04082   1. 
 Bq                   -1.16327  -1.04082   1. 
 Bq                   -1.04082  -1.04082   1. 
 Bq                   -0.91837  -1.04082   1. 
 Bq                   -0.79592  -1.04082   1. 
 Bq                   -0.67347  -1.04082   1. 
 Bq                   -0.55102  -1.04082   1. 
 Bq                   -0.42857  -1.04082   1. 
 Bq                   -0.30612  -1.04082   1. 
 Bq                   -0.18367  -1.04082   1. 
 Bq                   -0.06122  -1.04082   1. 
 Bq                    0.06122  -1.04082   1. 
 Bq                    0.18367  -1.04082   1. 
 Bq                    0.30612  -1.04082   1. 
 Bq                    0.42857  -1.04082   1. 
 Bq                    0.55102  -1.04082   1. 
 Bq                    0.67347  -1.04082   1. 
 Bq                    0.79592  -1.04082   1. 
 Bq                    0.91837  -1.04082   1. 
 Bq                    1.04082  -1.04082   1. 
 Bq                    1.16327  -1.04082   1. 
 Bq                    1.28571  -1.04082   1. 
 Bq                    1.40816  -1.04082   1. 
 Bq                    1.53061  -1.04082   1. 
 Bq                    1.65306  -1.04082   1. 
 Bq                    1.77551  -1.04082   1. 
 Bq                    1.89796  -1.04082   1. 
 Bq                    2.02041  -1.04082   1. 
 Bq                    2.14286  -1.04082   1. 
 Bq                    2.26531  -1.04082   1. 
 Bq                    2.38776  -1.04082   1. 
 Bq                    2.5102   -1.04082   1. 
 Bq                    2.63265  -1.04082   1. 
 Bq                    2.7551   -1.04082   1. 
 Bq                    2.87755  -1.04082   1. 
 Bq                    3.       -1.04082   1. 
 Bq                   -3.       -0.91837   1. 
 Bq                   -2.87755  -0.91837   1. 
 Bq                   -2.7551   -0.91837   1. 
 Bq                   -2.63265  -0.91837   1. 
 Bq                   -2.5102   -0.91837   1. 
 Bq                   -2.38776  -0.91837   1. 
 Bq                   -2.26531  -0.91837   1. 
 Bq                   -2.14286  -0.91837   1. 
 Bq                   -2.02041  -0.91837   1. 
 Bq                   -1.89796  -0.91837   1. 
 Bq                   -1.77551  -0.91837   1. 
 Bq                   -1.65306  -0.91837   1. 
 Bq                   -1.53061  -0.91837   1. 
 Bq                   -1.40816  -0.91837   1. 
 Bq                   -1.28571  -0.91837   1. 
 Bq                   -1.16327  -0.91837   1. 
 Bq                   -1.04082  -0.91837   1. 
 Bq                   -0.91837  -0.91837   1. 
 Bq                   -0.79592  -0.91837   1. 
 Bq                   -0.67347  -0.91837   1. 
 Bq                   -0.55102  -0.91837   1. 
 Bq                   -0.42857  -0.91837   1. 
 Bq                   -0.30612  -0.91837   1. 
 Bq                   -0.18367  -0.91837   1. 
 Bq                   -0.06122  -0.91837   1. 
 Bq                    0.06122  -0.91837   1. 
 Bq                    0.18367  -0.91837   1. 
 Bq                    0.30612  -0.91837   1. 
 Bq                    0.42857  -0.91837   1. 
 Bq                    0.55102  -0.91837   1. 
 Bq                    0.67347  -0.91837   1. 
 Bq                    0.79592  -0.91837   1. 
 Bq                    0.91837  -0.91837   1. 
 Bq                    1.04082  -0.91837   1. 
 Bq                    1.16327  -0.91837   1. 
 Bq                    1.28571  -0.91837   1. 
 Bq                    1.40816  -0.91837   1. 
 Bq                    1.53061  -0.91837   1. 
 Bq                    1.65306  -0.91837   1. 
 Bq                    1.77551  -0.91837   1. 
 Bq                    1.89796  -0.91837   1. 
 Bq                    2.02041  -0.91837   1. 
 Bq                    2.14286  -0.91837   1. 
 Bq                    2.26531  -0.91837   1. 
 Bq                    2.38776  -0.91837   1. 
 Bq                    2.5102   -0.91837   1. 
 Bq                    2.63265  -0.91837   1. 
 Bq                    2.7551   -0.91837   1. 
 Bq                    2.87755  -0.91837   1. 
 Bq                    3.       -0.91837   1. 
 Bq                   -3.       -0.79592   1. 
 Bq                   -2.87755  -0.79592   1. 
 Bq                   -2.7551   -0.79592   1. 
 Bq                   -2.63265  -0.79592   1. 
 Bq                   -2.5102   -0.79592   1. 
 Bq                   -2.38776  -0.79592   1. 
 Bq                   -2.26531  -0.79592   1. 
 Bq                   -2.14286  -0.79592   1. 
 Bq                   -2.02041  -0.79592   1. 
 Bq                   -1.89796  -0.79592   1. 
 Bq                   -1.77551  -0.79592   1. 
 Bq                   -1.65306  -0.79592   1. 
 Bq                   -1.53061  -0.79592   1. 
 Bq                   -1.40816  -0.79592   1. 
 Bq                   -1.28571  -0.79592   1. 
 Bq                   -1.16327  -0.79592   1. 
 Bq                   -1.04082  -0.79592   1. 
 Bq                   -0.91837  -0.79592   1. 
 Bq                   -0.79592  -0.79592   1. 
 Bq                   -0.67347  -0.79592   1. 
 Bq                   -0.55102  -0.79592   1. 
 Bq                   -0.42857  -0.79592   1. 
 Bq                   -0.30612  -0.79592   1. 
 Bq                   -0.18367  -0.79592   1. 
 Bq                   -0.06122  -0.79592   1. 
 Bq                    0.06122  -0.79592   1. 
 Bq                    0.18367  -0.79592   1. 
 Bq                    0.30612  -0.79592   1. 
 Bq                    0.42857  -0.79592   1. 
 Bq                    0.55102  -0.79592   1. 
 Bq                    0.67347  -0.79592   1. 
 Bq                    0.79592  -0.79592   1. 
 Bq                    0.91837  -0.79592   1. 
 Bq                    1.04082  -0.79592   1. 
 Bq                    1.16327  -0.79592   1. 
 Bq                    1.28571  -0.79592   1. 
 Bq                    1.40816  -0.79592   1. 
 Bq                    1.53061  -0.79592   1. 
 Bq                    1.65306  -0.79592   1. 
 Bq                    1.77551  -0.79592   1. 
 Bq                    1.89796  -0.79592   1. 
 Bq                    2.02041  -0.79592   1. 
 Bq                    2.14286  -0.79592   1. 
 Bq                    2.26531  -0.79592   1. 
 Bq                    2.38776  -0.79592   1. 
 Bq                    2.5102   -0.79592   1. 
 Bq                    2.63265  -0.79592   1. 
 Bq                    2.7551   -0.79592   1. 
 Bq                    2.87755  -0.79592   1. 
 Bq                    3.       -0.79592   1. 
 Bq                   -3.       -0.67347   1. 
 Bq                   -2.87755  -0.67347   1. 
 Bq                   -2.7551   -0.67347   1. 
 Bq                   -2.63265  -0.67347   1. 
 Bq                   -2.5102   -0.67347   1. 
 Bq                   -2.38776  -0.67347   1. 
 Bq                   -2.26531  -0.67347   1. 
 Bq                   -2.14286  -0.67347   1. 
 Bq                   -2.02041  -0.67347   1. 
 Bq                   -1.89796  -0.67347   1. 
 Bq                   -1.77551  -0.67347   1. 
 Bq                   -1.65306  -0.67347   1. 
 Bq                   -1.53061  -0.67347   1. 
 Bq                   -1.40816  -0.67347   1. 
 Bq                   -1.28571  -0.67347   1. 
 Bq                   -1.16327  -0.67347   1. 
 Bq                   -1.04082  -0.67347   1. 
 Bq                   -0.91837  -0.67347   1. 
 Bq                   -0.79592  -0.67347   1. 
 Bq                   -0.67347  -0.67347   1. 
 Bq                   -0.55102  -0.67347   1. 
 Bq                   -0.42857  -0.67347   1. 
 Bq                   -0.30612  -0.67347   1. 
 Bq                   -0.18367  -0.67347   1. 
 Bq                   -0.06122  -0.67347   1. 
 Bq                    0.06122  -0.67347   1. 
 Bq                    0.18367  -0.67347   1. 
 Bq                    0.30612  -0.67347   1. 
 Bq                    0.42857  -0.67347   1. 
 Bq                    0.55102  -0.67347   1. 
 Bq                    0.67347  -0.67347   1. 
 Bq                    0.79592  -0.67347   1. 
 Bq                    0.91837  -0.67347   1. 
 Bq                    1.04082  -0.67347   1. 
 Bq                    1.16327  -0.67347   1. 
 Bq                    1.28571  -0.67347   1. 
 Bq                    1.40816  -0.67347   1. 
 Bq                    1.53061  -0.67347   1. 
 Bq                    1.65306  -0.67347   1. 
 Bq                    1.77551  -0.67347   1. 
 Bq                    1.89796  -0.67347   1. 
 Bq                    2.02041  -0.67347   1. 
 Bq                    2.14286  -0.67347   1. 
 Bq                    2.26531  -0.67347   1. 
 Bq                    2.38776  -0.67347   1. 
 Bq                    2.5102   -0.67347   1. 
 Bq                    2.63265  -0.67347   1. 
 Bq                    2.7551   -0.67347   1. 
 Bq                    2.87755  -0.67347   1. 
 Bq                    3.       -0.67347   1. 
 Bq                   -3.       -0.55102   1. 
 Bq                   -2.87755  -0.55102   1. 
 Bq                   -2.7551   -0.55102   1. 
 Bq                   -2.63265  -0.55102   1. 
 Bq                   -2.5102   -0.55102   1. 
 Bq                   -2.38776  -0.55102   1. 
 Bq                   -2.26531  -0.55102   1. 
 Bq                   -2.14286  -0.55102   1. 
 Bq                   -2.02041  -0.55102   1. 
 Bq                   -1.89796  -0.55102   1. 
 Bq                   -1.77551  -0.55102   1. 
 Bq                   -1.65306  -0.55102   1. 
 Bq                   -1.53061  -0.55102   1. 
 Bq                   -1.40816  -0.55102   1. 
 Bq                   -1.28571  -0.55102   1. 
 Bq                   -1.16327  -0.55102   1. 
 Bq                   -1.04082  -0.55102   1. 
 Bq                   -0.91837  -0.55102   1. 
 Bq                   -0.79592  -0.55102   1. 
 Bq                   -0.67347  -0.55102   1. 
 Bq                   -0.55102  -0.55102   1. 
 Bq                   -0.42857  -0.55102   1. 
 Bq                   -0.30612  -0.55102   1. 
 Bq                   -0.18367  -0.55102   1. 
 Bq                   -0.06122  -0.55102   1. 
 Bq                    0.06122  -0.55102   1. 
 Bq                    0.18367  -0.55102   1. 
 Bq                    0.30612  -0.55102   1. 
 Bq                    0.42857  -0.55102   1. 
 Bq                    0.55102  -0.55102   1. 
 Bq                    0.67347  -0.55102   1. 
 Bq                    0.79592  -0.55102   1. 
 Bq                    0.91837  -0.55102   1. 
 Bq                    1.04082  -0.55102   1. 
 Bq                    1.16327  -0.55102   1. 
 Bq                    1.28571  -0.55102   1. 
 Bq                    1.40816  -0.55102   1. 
 Bq                    1.53061  -0.55102   1. 
 Bq                    1.65306  -0.55102   1. 
 Bq                    1.77551  -0.55102   1. 
 Bq                    1.89796  -0.55102   1. 
 Bq                    2.02041  -0.55102   1. 
 Bq                    2.14286  -0.55102   1. 
 Bq                    2.26531  -0.55102   1. 
 Bq                    2.38776  -0.55102   1. 
 Bq                    2.5102   -0.55102   1. 
 Bq                    2.63265  -0.55102   1. 
 Bq                    2.7551   -0.55102   1. 
 Bq                    2.87755  -0.55102   1. 
 Bq                    3.       -0.55102   1. 
 Bq                   -3.       -0.42857   1. 
 Bq                   -2.87755  -0.42857   1. 
 Bq                   -2.7551   -0.42857   1. 
 Bq                   -2.63265  -0.42857   1. 
 Bq                   -2.5102   -0.42857   1. 
 Bq                   -2.38776  -0.42857   1. 
 Bq                   -2.26531  -0.42857   1. 
 Bq                   -2.14286  -0.42857   1. 
 Bq                   -2.02041  -0.42857   1. 
 Bq                   -1.89796  -0.42857   1. 
 Bq                   -1.77551  -0.42857   1. 
 Bq                   -1.65306  -0.42857   1. 
 Bq                   -1.53061  -0.42857   1. 
 Bq                   -1.40816  -0.42857   1. 
 Bq                   -1.28571  -0.42857   1. 
 Bq                   -1.16327  -0.42857   1. 
 Bq                   -1.04082  -0.42857   1. 
 Bq                   -0.91837  -0.42857   1. 
 Bq                   -0.79592  -0.42857   1. 
 Bq                   -0.67347  -0.42857   1. 
 Bq                   -0.55102  -0.42857   1. 
 Bq                   -0.42857  -0.42857   1. 
 Bq                   -0.30612  -0.42857   1. 
 Bq                   -0.18367  -0.42857   1. 
 Bq                   -0.06122  -0.42857   1. 
 Bq                    0.06122  -0.42857   1. 
 Bq                    0.18367  -0.42857   1. 
 Bq                    0.30612  -0.42857   1. 
 Bq                    0.42857  -0.42857   1. 
 Bq                    0.55102  -0.42857   1. 
 Bq                    0.67347  -0.42857   1. 
 Bq                    0.79592  -0.42857   1. 
 Bq                    0.91837  -0.42857   1. 
 Bq                    1.04082  -0.42857   1. 
 Bq                    1.16327  -0.42857   1. 
 Bq                    1.28571  -0.42857   1. 
 Bq                    1.40816  -0.42857   1. 
 Bq                    1.53061  -0.42857   1. 
 Bq                    1.65306  -0.42857   1. 
 Bq                    1.77551  -0.42857   1. 
 Bq                    1.89796  -0.42857   1. 
 Bq                    2.02041  -0.42857   1. 
 Bq                    2.14286  -0.42857   1. 
 Bq                    2.26531  -0.42857   1. 
 Bq                    2.38776  -0.42857   1. 
 Bq                    2.5102   -0.42857   1. 
 Bq                    2.63265  -0.42857   1. 
 Bq                    2.7551   -0.42857   1. 
 Bq                    2.87755  -0.42857   1. 
 Bq                    3.       -0.42857   1. 
 Bq                   -3.       -0.30612   1. 
 Bq                   -2.87755  -0.30612   1. 
 Bq                   -2.7551   -0.30612   1. 
 Bq                   -2.63265  -0.30612   1. 
 Bq                   -2.5102   -0.30612   1. 
 Bq                   -2.38776  -0.30612   1. 
 Bq                   -2.26531  -0.30612   1. 
 Bq                   -2.14286  -0.30612   1. 
 Bq                   -2.02041  -0.30612   1. 
 Bq                   -1.89796  -0.30612   1. 
 Bq                   -1.77551  -0.30612   1. 
 Bq                   -1.65306  -0.30612   1. 
 Bq                   -1.53061  -0.30612   1. 
 Bq                   -1.40816  -0.30612   1. 
 Bq                   -1.28571  -0.30612   1. 
 Bq                   -1.16327  -0.30612   1. 
 Bq                   -1.04082  -0.30612   1. 
 Bq                   -0.91837  -0.30612   1. 
 Bq                   -0.79592  -0.30612   1. 
 Bq                   -0.67347  -0.30612   1. 
 Bq                   -0.55102  -0.30612   1. 
 Bq                   -0.42857  -0.30612   1. 
 Bq                   -0.30612  -0.30612   1. 
 Bq                   -0.18367  -0.30612   1. 
 Bq                   -0.06122  -0.30612   1. 
 Bq                    0.06122  -0.30612   1. 
 Bq                    0.18367  -0.30612   1. 
 Bq                    0.30612  -0.30612   1. 
 Bq                    0.42857  -0.30612   1. 
 Bq                    0.55102  -0.30612   1. 
 Bq                    0.67347  -0.30612   1. 
 Bq                    0.79592  -0.30612   1. 
 Bq                    0.91837  -0.30612   1. 
 Bq                    1.04082  -0.30612   1. 
 Bq                    1.16327  -0.30612   1. 
 Bq                    1.28571  -0.30612   1. 
 Bq                    1.40816  -0.30612   1. 
 Bq                    1.53061  -0.30612   1. 
 Bq                    1.65306  -0.30612   1. 
 Bq                    1.77551  -0.30612   1. 
 Bq                    1.89796  -0.30612   1. 
 Bq                    2.02041  -0.30612   1. 
 Bq                    2.14286  -0.30612   1. 
 Bq                    2.26531  -0.30612   1. 
 Bq                    2.38776  -0.30612   1. 
 Bq                    2.5102   -0.30612   1. 
 Bq                    2.63265  -0.30612   1. 
 Bq                    2.7551   -0.30612   1. 
 Bq                    2.87755  -0.30612   1. 
 Bq                    3.       -0.30612   1. 
 Bq                   -3.       -0.18367   1. 
 Bq                   -2.87755  -0.18367   1. 
 Bq                   -2.7551   -0.18367   1. 
 Bq                   -2.63265  -0.18367   1. 
 Bq                   -2.5102   -0.18367   1. 
 Bq                   -2.38776  -0.18367   1. 
 Bq                   -2.26531  -0.18367   1. 
 Bq                   -2.14286  -0.18367   1. 
 Bq                   -2.02041  -0.18367   1. 
 Bq                   -1.89796  -0.18367   1. 
 Bq                   -1.77551  -0.18367   1. 
 Bq                   -1.65306  -0.18367   1. 
 Bq                   -1.53061  -0.18367   1. 
 Bq                   -1.40816  -0.18367   1. 
 Bq                   -1.28571  -0.18367   1. 
 Bq                   -1.16327  -0.18367   1. 
 Bq                   -1.04082  -0.18367   1. 
 Bq                   -0.91837  -0.18367   1. 
 Bq                   -0.79592  -0.18367   1. 
 Bq                   -0.67347  -0.18367   1. 
 Bq                   -0.55102  -0.18367   1. 
 Bq                   -0.42857  -0.18367   1. 
 Bq                   -0.30612  -0.18367   1. 
 Bq                   -0.18367  -0.18367   1. 
 Bq                   -0.06122  -0.18367   1. 
 Bq                    0.06122  -0.18367   1. 
 Bq                    0.18367  -0.18367   1. 
 Bq                    0.30612  -0.18367   1. 
 Bq                    0.42857  -0.18367   1. 
 Bq                    0.55102  -0.18367   1. 
 Bq                    0.67347  -0.18367   1. 
 Bq                    0.79592  -0.18367   1. 
 Bq                    0.91837  -0.18367   1. 
 Bq                    1.04082  -0.18367   1. 
 Bq                    1.16327  -0.18367   1. 
 Bq                    1.28571  -0.18367   1. 
 Bq                    1.40816  -0.18367   1. 
 Bq                    1.53061  -0.18367   1. 
 Bq                    1.65306  -0.18367   1. 
 Bq                    1.77551  -0.18367   1. 
 Bq                    1.89796  -0.18367   1. 
 Bq                    2.02041  -0.18367   1. 
 Bq                    2.14286  -0.18367   1. 
 Bq                    2.26531  -0.18367   1. 
 Bq                    2.38776  -0.18367   1. 
 Bq                    2.5102   -0.18367   1. 
 Bq                    2.63265  -0.18367   1. 
 Bq                    2.7551   -0.18367   1. 
 Bq                    2.87755  -0.18367   1. 
 Bq                    3.       -0.18367   1. 
 Bq                   -3.       -0.06122   1. 
 Bq                   -2.87755  -0.06122   1. 
 Bq                   -2.7551   -0.06122   1. 
 Bq                   -2.63265  -0.06122   1. 
 Bq                   -2.5102   -0.06122   1. 
 Bq                   -2.38776  -0.06122   1. 
 Bq                   -2.26531  -0.06122   1. 
 Bq                   -2.14286  -0.06122   1. 
 Bq                   -2.02041  -0.06122   1. 
 Bq                   -1.89796  -0.06122   1. 
 Bq                   -1.77551  -0.06122   1. 
 Bq                   -1.65306  -0.06122   1. 
 Bq                   -1.53061  -0.06122   1. 
 Bq                   -1.40816  -0.06122   1. 
 Bq                   -1.28571  -0.06122   1. 
 Bq                   -1.16327  -0.06122   1. 
 Bq                   -1.04082  -0.06122   1. 
 Bq                   -0.91837  -0.06122   1. 
 Bq                   -0.79592  -0.06122   1. 
 Bq                   -0.67347  -0.06122   1. 
 Bq                   -0.55102  -0.06122   1. 
 Bq                   -0.42857  -0.06122   1. 
 Bq                   -0.30612  -0.06122   1. 
 Bq                   -0.18367  -0.06122   1. 
 Bq                   -0.06122  -0.06122   1. 
 Bq                    0.06122  -0.06122   1. 
 Bq                    0.18367  -0.06122   1. 
 Bq                    0.30612  -0.06122   1. 
 Bq                    0.42857  -0.06122   1. 
 Bq                    0.55102  -0.06122   1. 
 Bq                    0.67347  -0.06122   1. 
 Bq                    0.79592  -0.06122   1. 
 Bq                    0.91837  -0.06122   1. 
 Bq                    1.04082  -0.06122   1. 
 Bq                    1.16327  -0.06122   1. 
 Bq                    1.28571  -0.06122   1. 
 Bq                    1.40816  -0.06122   1. 
 Bq                    1.53061  -0.06122   1. 
 Bq                    1.65306  -0.06122   1. 
 Bq                    1.77551  -0.06122   1. 
 Bq                    1.89796  -0.06122   1. 
 Bq                    2.02041  -0.06122   1. 
 Bq                    2.14286  -0.06122   1. 
 Bq                    2.26531  -0.06122   1. 
 Bq                    2.38776  -0.06122   1. 
 Bq                    2.5102   -0.06122   1. 
 Bq                    2.63265  -0.06122   1. 
 Bq                    2.7551   -0.06122   1. 
 Bq                    2.87755  -0.06122   1. 
 Bq                    3.       -0.06122   1. 
 Bq                   -3.        0.06122   1. 
 Bq                   -2.87755   0.06122   1. 
 Bq                   -2.7551    0.06122   1. 
 Bq                   -2.63265   0.06122   1. 
 Bq                   -2.5102    0.06122   1. 
 Bq                   -2.38776   0.06122   1. 
 Bq                   -2.26531   0.06122   1. 
 Bq                   -2.14286   0.06122   1. 
 Bq                   -2.02041   0.06122   1. 
 Bq                   -1.89796   0.06122   1. 
 Bq                   -1.77551   0.06122   1. 
 Bq                   -1.65306   0.06122   1. 
 Bq                   -1.53061   0.06122   1. 
 Bq                   -1.40816   0.06122   1. 
 Bq                   -1.28571   0.06122   1. 
 Bq                   -1.16327   0.06122   1. 
 Bq                   -1.04082   0.06122   1. 
 Bq                   -0.91837   0.06122   1. 
 Bq                   -0.79592   0.06122   1. 
 Bq                   -0.67347   0.06122   1. 
 Bq                   -0.55102   0.06122   1. 
 Bq                   -0.42857   0.06122   1. 
 Bq                   -0.30612   0.06122   1. 
 Bq                   -0.18367   0.06122   1. 
 Bq                   -0.06122   0.06122   1. 
 Bq                    0.06122   0.06122   1. 
 Bq                    0.18367   0.06122   1. 
 Bq                    0.30612   0.06122   1. 
 Bq                    0.42857   0.06122   1. 
 Bq                    0.55102   0.06122   1. 
 Bq                    0.67347   0.06122   1. 
 Bq                    0.79592   0.06122   1. 
 Bq                    0.91837   0.06122   1. 
 Bq                    1.04082   0.06122   1. 
 Bq                    1.16327   0.06122   1. 
 Bq                    1.28571   0.06122   1. 
 Bq                    1.40816   0.06122   1. 
 Bq                    1.53061   0.06122   1. 
 Bq                    1.65306   0.06122   1. 
 Bq                    1.77551   0.06122   1. 
 Bq                    1.89796   0.06122   1. 
 Bq                    2.02041   0.06122   1. 
 Bq                    2.14286   0.06122   1. 
 Bq                    2.26531   0.06122   1. 
 Bq                    2.38776   0.06122   1. 
 Bq                    2.5102    0.06122   1. 
 Bq                    2.63265   0.06122   1. 
 Bq                    2.7551    0.06122   1. 
 Bq                    2.87755   0.06122   1. 
 Bq                    3.        0.06122   1. 
 Bq                   -3.        0.18367   1. 
 Bq                   -2.87755   0.18367   1. 
 Bq                   -2.7551    0.18367   1. 
 Bq                   -2.63265   0.18367   1. 
 Bq                   -2.5102    0.18367   1. 
 Bq                   -2.38776   0.18367   1. 
 Bq                   -2.26531   0.18367   1. 
 Bq                   -2.14286   0.18367   1. 
 Bq                   -2.02041   0.18367   1. 
 Bq                   -1.89796   0.18367   1. 
 Bq                   -1.77551   0.18367   1. 
 Bq                   -1.65306   0.18367   1. 
 Bq                   -1.53061   0.18367   1. 
 Bq                   -1.40816   0.18367   1. 
 Bq                   -1.28571   0.18367   1. 
 Bq                   -1.16327   0.18367   1. 
 Bq                   -1.04082   0.18367   1. 
 Bq                   -0.91837   0.18367   1. 
 Bq                   -0.79592   0.18367   1. 
 Bq                   -0.67347   0.18367   1. 
 Bq                   -0.55102   0.18367   1. 
 Bq                   -0.42857   0.18367   1. 
 Bq                   -0.30612   0.18367   1. 
 Bq                   -0.18367   0.18367   1. 
 Bq                   -0.06122   0.18367   1. 
 Bq                    0.06122   0.18367   1. 
 Bq                    0.18367   0.18367   1. 
 Bq                    0.30612   0.18367   1. 
 Bq                    0.42857   0.18367   1. 
 Bq                    0.55102   0.18367   1. 
 Bq                    0.67347   0.18367   1. 
 Bq                    0.79592   0.18367   1. 
 Bq                    0.91837   0.18367   1. 
 Bq                    1.04082   0.18367   1. 
 Bq                    1.16327   0.18367   1. 
 Bq                    1.28571   0.18367   1. 
 Bq                    1.40816   0.18367   1. 
 Bq                    1.53061   0.18367   1. 
 Bq                    1.65306   0.18367   1. 
 Bq                    1.77551   0.18367   1. 
 Bq                    1.89796   0.18367   1. 
 Bq                    2.02041   0.18367   1. 
 Bq                    2.14286   0.18367   1. 
 Bq                    2.26531   0.18367   1. 
 Bq                    2.38776   0.18367   1. 
 Bq                    2.5102    0.18367   1. 
 Bq                    2.63265   0.18367   1. 
 Bq                    2.7551    0.18367   1. 
 Bq                    2.87755   0.18367   1. 
 Bq                    3.        0.18367   1. 
 Bq                   -3.        0.30612   1. 
 Bq                   -2.87755   0.30612   1. 
 Bq                   -2.7551    0.30612   1. 
 Bq                   -2.63265   0.30612   1. 
 Bq                   -2.5102    0.30612   1. 
 Bq                   -2.38776   0.30612   1. 
 Bq                   -2.26531   0.30612   1. 
 Bq                   -2.14286   0.30612   1. 
 Bq                   -2.02041   0.30612   1. 
 Bq                   -1.89796   0.30612   1. 
 Bq                   -1.77551   0.30612   1. 
 Bq                   -1.65306   0.30612   1. 
 Bq                   -1.53061   0.30612   1. 
 Bq                   -1.40816   0.30612   1. 
 Bq                   -1.28571   0.30612   1. 
 Bq                   -1.16327   0.30612   1. 
 Bq                   -1.04082   0.30612   1. 
 Bq                   -0.91837   0.30612   1. 
 Bq                   -0.79592   0.30612   1. 
 Bq                   -0.67347   0.30612   1. 
 Bq                   -0.55102   0.30612   1. 
 Bq                   -0.42857   0.30612   1. 
 Bq                   -0.30612   0.30612   1. 
 Bq                   -0.18367   0.30612   1. 
 Bq                   -0.06122   0.30612   1. 
 Bq                    0.06122   0.30612   1. 
 Bq                    0.18367   0.30612   1. 
 Bq                    0.30612   0.30612   1. 
 Bq                    0.42857   0.30612   1. 
 Bq                    0.55102   0.30612   1. 
 Bq                    0.67347   0.30612   1. 
 Bq                    0.79592   0.30612   1. 
 Bq                    0.91837   0.30612   1. 
 Bq                    1.04082   0.30612   1. 
 Bq                    1.16327   0.30612   1. 
 Bq                    1.28571   0.30612   1. 
 Bq                    1.40816   0.30612   1. 
 Bq                    1.53061   0.30612   1. 
 Bq                    1.65306   0.30612   1. 
 Bq                    1.77551   0.30612   1. 
 Bq                    1.89796   0.30612   1. 
 Bq                    2.02041   0.30612   1. 
 Bq                    2.14286   0.30612   1. 
 Bq                    2.26531   0.30612   1. 
 Bq                    2.38776   0.30612   1. 
 Bq                    2.5102    0.30612   1. 
 Bq                    2.63265   0.30612   1. 
 Bq                    2.7551    0.30612   1. 
 Bq                    2.87755   0.30612   1. 
 Bq                    3.        0.30612   1. 
 Bq                   -3.        0.42857   1. 
 Bq                   -2.87755   0.42857   1. 
 Bq                   -2.7551    0.42857   1. 
 Bq                   -2.63265   0.42857   1. 
 Bq                   -2.5102    0.42857   1. 
 Bq                   -2.38776   0.42857   1. 
 Bq                   -2.26531   0.42857   1. 
 Bq                   -2.14286   0.42857   1. 
 Bq                   -2.02041   0.42857   1. 
 Bq                   -1.89796   0.42857   1. 
 Bq                   -1.77551   0.42857   1. 
 Bq                   -1.65306   0.42857   1. 
 Bq                   -1.53061   0.42857   1. 
 Bq                   -1.40816   0.42857   1. 
 Bq                   -1.28571   0.42857   1. 
 Bq                   -1.16327   0.42857   1. 
 Bq                   -1.04082   0.42857   1. 
 Bq                   -0.91837   0.42857   1. 
 Bq                   -0.79592   0.42857   1. 
 Bq                   -0.67347   0.42857   1. 
 Bq                   -0.55102   0.42857   1. 
 Bq                   -0.42857   0.42857   1. 
 Bq                   -0.30612   0.42857   1. 
 Bq                   -0.18367   0.42857   1. 
 Bq                   -0.06122   0.42857   1. 
 Bq                    0.06122   0.42857   1. 
 Bq                    0.18367   0.42857   1. 
 Bq                    0.30612   0.42857   1. 
 Bq                    0.42857   0.42857   1. 
 Bq                    0.55102   0.42857   1. 
 Bq                    0.67347   0.42857   1. 
 Bq                    0.79592   0.42857   1. 
 Bq                    0.91837   0.42857   1. 
 Bq                    1.04082   0.42857   1. 
 Bq                    1.16327   0.42857   1. 
 Bq                    1.28571   0.42857   1. 
 Bq                    1.40816   0.42857   1. 
 Bq                    1.53061   0.42857   1. 
 Bq                    1.65306   0.42857   1. 
 Bq                    1.77551   0.42857   1. 
 Bq                    1.89796   0.42857   1. 
 Bq                    2.02041   0.42857   1. 
 Bq                    2.14286   0.42857   1. 
 Bq                    2.26531   0.42857   1. 
 Bq                    2.38776   0.42857   1. 
 Bq                    2.5102    0.42857   1. 
 Bq                    2.63265   0.42857   1. 
 Bq                    2.7551    0.42857   1. 
 Bq                    2.87755   0.42857   1. 
 Bq                    3.        0.42857   1. 
 Bq                   -3.        0.55102   1. 
 Bq                   -2.87755   0.55102   1. 
 Bq                   -2.7551    0.55102   1. 
 Bq                   -2.63265   0.55102   1. 
 Bq                   -2.5102    0.55102   1. 
 Bq                   -2.38776   0.55102   1. 
 Bq                   -2.26531   0.55102   1. 
 Bq                   -2.14286   0.55102   1. 
 Bq                   -2.02041   0.55102   1. 
 Bq                   -1.89796   0.55102   1. 
 Bq                   -1.77551   0.55102   1. 
 Bq                   -1.65306   0.55102   1. 
 Bq                   -1.53061   0.55102   1. 
 Bq                   -1.40816   0.55102   1. 
 Bq                   -1.28571   0.55102   1. 
 Bq                   -1.16327   0.55102   1. 
 Bq                   -1.04082   0.55102   1. 
 Bq                   -0.91837   0.55102   1. 
 Bq                   -0.79592   0.55102   1. 
 Bq                   -0.67347   0.55102   1. 
 Bq                   -0.55102   0.55102   1. 
 Bq                   -0.42857   0.55102   1. 
 Bq                   -0.30612   0.55102   1. 
 Bq                   -0.18367   0.55102   1. 
 Bq                   -0.06122   0.55102   1. 
 Bq                    0.06122   0.55102   1. 
 Bq                    0.18367   0.55102   1. 
 Bq                    0.30612   0.55102   1. 
 Bq                    0.42857   0.55102   1. 
 Bq                    0.55102   0.55102   1. 
 Bq                    0.67347   0.55102   1. 
 Bq                    0.79592   0.55102   1. 
 Bq                    0.91837   0.55102   1. 
 Bq                    1.04082   0.55102   1. 
 Bq                    1.16327   0.55102   1. 
 Bq                    1.28571   0.55102   1. 
 Bq                    1.40816   0.55102   1. 
 Bq                    1.53061   0.55102   1. 
 Bq                    1.65306   0.55102   1. 
 Bq                    1.77551   0.55102   1. 
 Bq                    1.89796   0.55102   1. 
 Bq                    2.02041   0.55102   1. 
 Bq                    2.14286   0.55102   1. 
 Bq                    2.26531   0.55102   1. 
 Bq                    2.38776   0.55102   1. 
 Bq                    2.5102    0.55102   1. 
 Bq                    2.63265   0.55102   1. 
 Bq                    2.7551    0.55102   1. 
 Bq                    2.87755   0.55102   1. 
 Bq                    3.        0.55102   1. 
 Bq                   -3.        0.67347   1. 
 Bq                   -2.87755   0.67347   1. 
 Bq                   -2.7551    0.67347   1. 
 Bq                   -2.63265   0.67347   1. 
 Bq                   -2.5102    0.67347   1. 
 Bq                   -2.38776   0.67347   1. 
 Bq                   -2.26531   0.67347   1. 
 Bq                   -2.14286   0.67347   1. 
 Bq                   -2.02041   0.67347   1. 
 Bq                   -1.89796   0.67347   1. 
 Bq                   -1.77551   0.67347   1. 
 Bq                   -1.65306   0.67347   1. 
 Bq                   -1.53061   0.67347   1. 
 Bq                   -1.40816   0.67347   1. 
 Bq                   -1.28571   0.67347   1. 
 Bq                   -1.16327   0.67347   1. 
 Bq                   -1.04082   0.67347   1. 
 Bq                   -0.91837   0.67347   1. 
 Bq                   -0.79592   0.67347   1. 
 Bq                   -0.67347   0.67347   1. 
 Bq                   -0.55102   0.67347   1. 
 Bq                   -0.42857   0.67347   1. 
 Bq                   -0.30612   0.67347   1. 
 Bq                   -0.18367   0.67347   1. 
 Bq                   -0.06122   0.67347   1. 
 Bq                    0.06122   0.67347   1. 
 Bq                    0.18367   0.67347   1. 
 Bq                    0.30612   0.67347   1. 
 Bq                    0.42857   0.67347   1. 
 Bq                    0.55102   0.67347   1. 
 Bq                    0.67347   0.67347   1. 
 Bq                    0.79592   0.67347   1. 
 Bq                    0.91837   0.67347   1. 
 Bq                    1.04082   0.67347   1. 
 Bq                    1.16327   0.67347   1. 
 Bq                    1.28571   0.67347   1. 
 Bq                    1.40816   0.67347   1. 
 Bq                    1.53061   0.67347   1. 
 Bq                    1.65306   0.67347   1. 
 Bq                    1.77551   0.67347   1. 
 Bq                    1.89796   0.67347   1. 
 Bq                    2.02041   0.67347   1. 
 Bq                    2.14286   0.67347   1. 
 Bq                    2.26531   0.67347   1. 
 Bq                    2.38776   0.67347   1. 
 Bq                    2.5102    0.67347   1. 
 Bq                    2.63265   0.67347   1. 
 Bq                    2.7551    0.67347   1. 
 Bq                    2.87755   0.67347   1. 
 Bq                    3.        0.67347   1. 
 Bq                   -3.        0.79592   1. 
 Bq                   -2.87755   0.79592   1. 
 Bq                   -2.7551    0.79592   1. 
 Bq                   -2.63265   0.79592   1. 
 Bq                   -2.5102    0.79592   1. 
 Bq                   -2.38776   0.79592   1. 
 Bq                   -2.26531   0.79592   1. 
 Bq                   -2.14286   0.79592   1. 
 Bq                   -2.02041   0.79592   1. 
 Bq                   -1.89796   0.79592   1. 
 Bq                   -1.77551   0.79592   1. 
 Bq                   -1.65306   0.79592   1. 
 Bq                   -1.53061   0.79592   1. 
 Bq                   -1.40816   0.79592   1. 
 Bq                   -1.28571   0.79592   1. 
 Bq                   -1.16327   0.79592   1. 
 Bq                   -1.04082   0.79592   1. 
 Bq                   -0.91837   0.79592   1. 
 Bq                   -0.79592   0.79592   1. 
 Bq                   -0.67347   0.79592   1. 
 Bq                   -0.55102   0.79592   1. 
 Bq                   -0.42857   0.79592   1. 
 Bq                   -0.30612   0.79592   1. 
 Bq                   -0.18367   0.79592   1. 
 Bq                   -0.06122   0.79592   1. 
 Bq                    0.06122   0.79592   1. 
 Bq                    0.18367   0.79592   1. 
 Bq                    0.30612   0.79592   1. 
 Bq                    0.42857   0.79592   1. 
 Bq                    0.55102   0.79592   1. 
 Bq                    0.67347   0.79592   1. 
 Bq                    0.79592   0.79592   1. 
 Bq                    0.91837   0.79592   1. 
 Bq                    1.04082   0.79592   1. 
 Bq                    1.16327   0.79592   1. 
 Bq                    1.28571   0.79592   1. 
 Bq                    1.40816   0.79592   1. 
 Bq                    1.53061   0.79592   1. 
 Bq                    1.65306   0.79592   1. 
 Bq                    1.77551   0.79592   1. 
 Bq                    1.89796   0.79592   1. 
 Bq                    2.02041   0.79592   1. 
 Bq                    2.14286   0.79592   1. 
 Bq                    2.26531   0.79592   1. 
 Bq                    2.38776   0.79592   1. 
 Bq                    2.5102    0.79592   1. 
 Bq                    2.63265   0.79592   1. 
 Bq                    2.7551    0.79592   1. 
[...]
 408,1.53061224,1.\Bq,0,-2.3877551,1.53061224,1.\Bq,0,-2.26530612,1.530
 61224,1.\Bq,0,-2.14285714,1.53061224,1.\Bq,0,-2.02040816,1.53061224,1.
 \Bq,0,-1.89795918,1.53061224,1.\Bq,0,-1.7755102,1.53061224,1.\Bq,0,-1.
 65306122,1.53061224,1.\Bq,0,-1.53061224,1.53061224,1.\Bq,0,-1.40816327
 ,1.53061224,1.\Bq,0,-1.28571429,1.53061224,1.\Bq,0,-1.16326531,1.53061
 224,1.\Bq,0,-1.04081633,1.53061224,1.\Bq,0,-0.91836735,1.53061224,1.\B
 q,0,-0.79591837,1.53061224,1.\Bq,0,-0.67346939,1.53061224,1.\Bq,0,-0.5
 5102041,1.53061224,1.\Bq,0,-0.42857143,1.53061224,1.\Bq,0,-0.30612245,
 1.53061224,1.\Bq,0,-0.18367347,1.53061224,1.\Bq,0,-0.06122449,1.530612
 24,1.\Bq,0,0.06122449,1.53061224,1.\Bq,0,0.18367347,1.53061224,1.\Bq,0
 ,0.30612245,1.53061224,1.\Bq,0,0.42857143,1.53061224,1.\Bq,0,0.5510204
 1,1.53061224,1.\Bq,0,0.67346939,1.53061224,1.\Bq,0,0.79591837,1.530612
 24,1.\Bq,0,0.91836735,1.53061224,1.\Bq,0,1.04081633,1.53061224,1.\Bq,0
 ,1.16326531,1.53061224,1.\Bq,0,1.28571429,1.53061224,1.\Bq,0,1.4081632
 7,1.53061224,1.\Bq,0,1.53061224,1.53061224,1.\Bq,0,1.65306122,1.530612
 24,1.\Bq,0,1.7755102,1.53061224,1.\Bq,0,1.89795918,1.53061224,1.\Bq,0,
 2.02040816,1.53061224,1.\Bq,0,2.14285714,1.53061224,1.\Bq,0,2.26530612
 ,1.53061224,1.\Bq,0,2.3877551,1.53061224,1.\Bq,0,2.51020408,1.53061224
 ,1.\Bq,0,2.63265306,1.53061224,1.\Bq,0,2.75510204,1.53061224,1.\Bq,0,2
 .87755102,1.53061224,1.\Bq,0,3.,1.53061224,1.\Bq,0,-3.,1.65306122,1.\B
 q,0,-2.87755102,1.65306122,1.\Bq,0,-2.75510204,1.65306122,1.\Bq,0,-2.6
 3265306,1.65306122,1.\Bq,0,-2.51020408,1.65306122,1.\Bq,0,-2.3877551,1
 .65306122,1.\Bq,0,-2.26530612,1.65306122,1.\Bq,0,-2.14285714,1.6530612
 2,1.\Bq,0,-2.02040816,1.65306122,1.\Bq,0,-1.89795918,1.65306122,1.\Bq,
 0,-1.7755102,1.65306122,1.\Bq,0,-1.65306122,1.65306122,1.\Bq,0,-1.5306
 1224,1.65306122,1.\Bq,0,-1.40816327,1.65306122,1.\Bq,0,-1.28571429,1.6
 5306122,1.\Bq,0,-1.16326531,1.65306122,1.\Bq,0,-1.04081633,1.65306122,
 1.\Bq,0,-0.91836735,1.65306122,1.\Bq,0,-0.79591837,1.65306122,1.\Bq,0,
 -0.67346939,1.65306122,1.\Bq,0,-0.55102041,1.65306122,1.\Bq,0,-0.42857
 143,1.65306122,1.\Bq,0,-0.30612245,1.65306122,1.\Bq,0,-0.18367347,1.65
 306122,1.\Bq,0,-0.06122449,1.65306122,1.\Bq,0,0.06122449,1.65306122,1.
 \Bq,0,0.18367347,1.65306122,1.\Bq,0,0.30612245,1.65306122,1.\Bq,0,0.42
 857143,1.65306122,1.\Bq,0,0.55102041,1.65306122,1.\Bq,0,0.67346939,1.6
 5306122,1.\Bq,0,0.79591837,1.65306122,1.\Bq,0,0.91836735,1.65306122,1.
 \Bq,0,1.04081633,1.65306122,1.\Bq,0,1.16326531,1.65306122,1.\Bq,0,1.28
 571429,1.65306122,1.\Bq,0,1.40816327,1.65306122,1.\Bq,0,1.53061224,1.6
 5306122,1.\Bq,0,1.65306122,1.65306122,1.\Bq,0,1.7755102,1.65306122,1.\
 Bq,0,1.89795918,1.65306122,1.\Bq,0,2.02040816,1.65306122,1.\Bq,0,2.142
 85714,1.65306122,1.\Bq,0,2.26530612,1.65306122,1.\Bq,0,2.3877551,1.653
 06122,1.\Bq,0,2.51020408,1.65306122,1.\Bq,0,2.63265306,1.65306122,1.\B
 q,0,2.75510204,1.65306122,1.\Bq,0,2.87755102,1.65306122,1.\Bq,0,3.,1.6
 5306122,1.\Bq,0,-3.,1.7755102,1.\Bq,0,-2.87755102,1.7755102,1.\Bq,0,-2
 .75510204,1.7755102,1.\Bq,0,-2.63265306,1.7755102,1.\Bq,0,-2.51020408,
 1.7755102,1.\Bq,0,-2.3877551,1.7755102,1.\Bq,0,-2.26530612,1.7755102,1
 .\Bq,0,-2.14285714,1.7755102,1.\Bq,0,-2.02040816,1.7755102,1.\Bq,0,-1.
 89795918,1.7755102,1.\Bq,0,-1.7755102,1.7755102,1.\Bq,0,-1.65306122,1.
 7755102,1.\Bq,0,-1.53061224,1.7755102,1.\Bq,0,-1.40816327,1.7755102,1.
 \Bq,0,-1.28571429,1.7755102,1.\Bq,0,-1.16326531,1.7755102,1.\Bq,0,-1.0
 4081633,1.7755102,1.\Bq,0,-0.91836735,1.7755102,1.\Bq,0,-0.79591837,1.
 7755102,1.\Bq,0,-0.67346939,1.7755102,1.\Bq,0,-0.55102041,1.7755102,1.
 \Bq,0,-0.42857143,1.7755102,1.\Bq,0,-0.30612245,1.7755102,1.\Bq,0,-0.1
 8367347,1.7755102,1.\Bq,0,-0.06122449,1.7755102,1.\Bq,0,0.06122449,1.7
 755102,1.\Bq,0,0.18367347,1.7755102,1.\Bq,0,0.30612245,1.7755102,1.\Bq
 ,0,0.42857143,1.7755102,1.\Bq,0,0.55102041,1.7755102,1.\Bq,0,0.6734693
 9,1.7755102,1.\Bq,0,0.79591837,1.7755102,1.\Bq,0,0.91836735,1.7755102,
 1.\Bq,0,1.04081633,1.7755102,1.\Bq,0,1.16326531,1.7755102,1.\Bq,0,1.28
 571429,1.7755102,1.\Bq,0,1.40816327,1.7755102,1.\Bq,0,1.53061224,1.775
 5102,1.\Bq,0,1.65306122,1.7755102,1.\Bq,0,1.7755102,1.7755102,1.\Bq,0,
 1.89795918,1.7755102,1.\Bq,0,2.02040816,1.7755102,1.\Bq,0,2.14285714,1
 .7755102,1.\Bq,0,2.26530612,1.7755102,1.\Bq,0,2.3877551,1.7755102,1.\B
 q,0,2.51020408,1.7755102,1.\Bq,0,2.63265306,1.7755102,1.\Bq,0,2.755102
 04,1.7755102,1.\Bq,0,2.87755102,1.7755102,1.\Bq,0,3.,1.7755102,1.\Bq,0
 ,-3.,1.89795918,1.\Bq,0,-2.87755102,1.89795918,1.\Bq,0,-2.75510204,1.8
 9795918,1.\Bq,0,-2.63265306,1.89795918,1.\Bq,0,-2.51020408,1.89795918,
 1.\Bq,0,-2.3877551,1.89795918,1.\Bq,0,-2.26530612,1.89795918,1.\Bq,0,-
 2.14285714,1.89795918,1.\Bq,0,-2.02040816,1.89795918,1.\Bq,0,-1.897959
 18,1.89795918,1.\Bq,0,-1.7755102,1.89795918,1.\Bq,0,-1.65306122,1.8979
 5918,1.\Bq,0,-1.53061224,1.89795918,1.\Bq,0,-1.40816327,1.89795918,1.\
 Bq,0,-1.28571429,1.89795918,1.\Bq,0,-1.16326531,1.89795918,1.\Bq,0,-1.
 04081633,1.89795918,1.\Bq,0,-0.91836735,1.89795918,1.\Bq,0,-0.79591837
 ,1.89795918,1.\Bq,0,-0.67346939,1.89795918,1.\Bq,0,-0.55102041,1.89795
 918,1.\Bq,0,-0.42857143,1.89795918,1.\Bq,0,-0.30612245,1.89795918,1.\B
 q,0,-0.18367347,1.89795918,1.\Bq,0,-0.06122449,1.89795918,1.\Bq,0,0.06
 122449,1.89795918,1.\Bq,0,0.18367347,1.89795918,1.\Bq,0,0.30612245,1.8
 9795918,1.\Bq,0,0.42857143,1.89795918,1.\Bq,0,0.55102041,1.89795918,1.
 \Bq,0,0.67346939,1.89795918,1.\Bq,0,0.79591837,1.89795918,1.\Bq,0,0.91
 836735,1.89795918,1.\Bq,0,1.04081633,1.89795918,1.\Bq,0,1.16326531,1.8
 9795918,1.\Bq,0,1.28571429,1.89795918,1.\Bq,0,1.40816327,1.89795918,1.
 \Bq,0,1.53061224,1.89795918,1.\Bq,0,1.65306122,1.89795918,1.\Bq,0,1.77
 55102,1.89795918,1.\Bq,0,1.89795918,1.89795918,1.\Bq,0,2.02040816,1.89
 795918,1.\Bq,0,2.14285714,1.89795918,1.\Bq,0,2.26530612,1.89795918,1.\
 Bq,0,2.3877551,1.89795918,1.\Bq,0,2.51020408,1.89795918,1.\Bq,0,2.6326
 5306,1.89795918,1.\Bq,0,2.75510204,1.89795918,1.\Bq,0,2.87755102,1.897
 95918,1.\Bq,0,3.,1.89795918,1.\Bq,0,-3.,2.02040816,1.\Bq,0,-2.87755102
 ,2.02040816,1.\Bq,0,-2.75510204,2.02040816,1.\Bq,0,-2.63265306,2.02040
 816,1.\Bq,0,-2.51020408,2.02040816,1.\Bq,0,-2.3877551,2.02040816,1.\Bq
 ,0,-2.26530612,2.02040816,1.\Bq,0,-2.14285714,2.02040816,1.\Bq,0,-2.02
 040816,2.02040816,1.\Bq,0,-1.89795918,2.02040816,1.\Bq,0,-1.7755102,2.
 02040816,1.\Bq,0,-1.65306122,2.02040816,1.\Bq,0,-1.53061224,2.02040816
 ,1.\Bq,0,-1.40816327,2.02040816,1.\Bq,0,-1.28571429,2.02040816,1.\Bq,0
 ,-1.16326531,2.02040816,1.\Bq,0,-1.04081633,2.02040816,1.\Bq,0,-0.9183
 6735,2.02040816,1.\Bq,0,-0.79591837,2.02040816,1.\Bq,0,-0.67346939,2.0
 2040816,1.\Bq,0,-0.55102041,2.02040816,1.\Bq,0,-0.42857143,2.02040816,
 1.\Bq,0,-0.30612245,2.02040816,1.\Bq,0,-0.18367347,2.02040816,1.\Bq,0,
 -0.06122449,2.02040816,1.\Bq,0,0.06122449,2.02040816,1.\Bq,0,0.1836734
 7,2.02040816,1.\Bq,0,0.30612245,2.02040816,1.\Bq,0,0.42857143,2.020408
 16,1.\Bq,0,0.55102041,2.02040816,1.\Bq,0,0.67346939,2.02040816,1.\Bq,0
 ,0.79591837,2.02040816,1.\Bq,0,0.91836735,2.02040816,1.\Bq,0,1.0408163
 3,2.02040816,1.\Bq,0,1.16326531,2.02040816,1.\Bq,0,1.28571429,2.020408
 16,1.\Bq,0,1.40816327,2.02040816,1.\Bq,0,1.53061224,2.02040816,1.\Bq,0
 ,1.65306122,2.02040816,1.\Bq,0,1.7755102,2.02040816,1.\Bq,0,1.89795918
 ,2.02040816,1.\Bq,0,2.02040816,2.02040816,1.\Bq,0,2.14285714,2.0204081
 6,1.\Bq,0,2.26530612,2.02040816,1.\Bq,0,2.3877551,2.02040816,1.\Bq,0,2
 .51020408,2.02040816,1.\Bq,0,2.63265306,2.02040816,1.\Bq,0,2.75510204,
 2.02040816,1.\Bq,0,2.87755102,2.02040816,1.\Bq,0,3.,2.02040816,1.\Bq,0
 ,-3.,2.14285714,1.\Bq,0,-2.87755102,2.14285714,1.\Bq,0,-2.75510204,2.1
 4285714,1.\Bq,0,-2.63265306,2.14285714,1.\Bq,0,-2.51020408,2.14285714,
 1.\Bq,0,-2.3877551,2.14285714,1.\Bq,0,-2.26530612,2.14285714,1.\Bq,0,-
 2.14285714,2.14285714,1.\Bq,0,-2.02040816,2.14285714,1.\Bq,0,-1.897959
 18,2.14285714,1.\Bq,0,-1.7755102,2.14285714,1.\Bq,0,-1.65306122,2.1428
 5714,1.\Bq,0,-1.53061224,2.14285714,1.\Bq,0,-1.40816327,2.14285714,1.\
 Bq,0,-1.28571429,2.14285714,1.\Bq,0,-1.16326531,2.14285714,1.\Bq,0,-1.
 04081633,2.14285714,1.\Bq,0,-0.91836735,2.14285714,1.\Bq,0,-0.79591837
 ,2.14285714,1.\Bq,0,-0.67346939,2.14285714,1.\Bq,0,-0.55102041,2.14285
 714,1.\Bq,0,-0.42857143,2.14285714,1.\Bq,0,-0.30612245,2.14285714,1.\B
 q,0,-0.18367347,2.14285714,1.\Bq,0,-0.06122449,2.14285714,1.\Bq,0,0.06
 122449,2.14285714,1.\Bq,0,0.18367347,2.14285714,1.\Bq,0,0.30612245,2.1
 4285714,1.\Bq,0,0.42857143,2.14285714,1.\Bq,0,0.55102041,2.14285714,1.
 \Bq,0,0.67346939,2.14285714,1.\Bq,0,0.79591837,2.14285714,1.\Bq,0,0.91
 836735,2.14285714,1.\Bq,0,1.04081633,2.14285714,1.\Bq,0,1.16326531,2.1
 4285714,1.\Bq,0,1.28571429,2.14285714,1.\Bq,0,1.40816327,2.14285714,1.
 \Bq,0,1.53061224,2.14285714,1.\Bq,0,1.65306122,2.14285714,1.\Bq,0,1.77
 55102,2.14285714,1.\Bq,0,1.89795918,2.14285714,1.\Bq,0,2.02040816,2.14
 285714,1.\Bq,0,2.14285714,2.14285714,1.\Bq,0,2.26530612,2.14285714,1.\
 Bq,0,2.3877551,2.14285714,1.\Bq,0,2.51020408,2.14285714,1.\Bq,0,2.6326
 5306,2.14285714,1.\Bq,0,2.75510204,2.14285714,1.\Bq,0,2.87755102,2.142
 85714,1.\Bq,0,3.,2.14285714,1.\Bq,0,-3.,2.26530612,1.\Bq,0,-2.87755102
 ,2.26530612,1.\Bq,0,-2.75510204,2.26530612,1.\Bq,0,-2.63265306,2.26530
 612,1.\Bq,0,-2.51020408,2.26530612,1.\Bq,0,-2.3877551,2.26530612,1.\Bq
 ,0,-2.26530612,2.26530612,1.\Bq,0,-2.14285714,2.26530612,1.\Bq,0,-2.02
 040816,2.26530612,1.\Bq,0,-1.89795918,2.26530612,1.\Bq,0,-1.7755102,2.
 26530612,1.\Bq,0,-1.65306122,2.26530612,1.\Bq,0,-1.53061224,2.26530612
 ,1.\Bq,0,-1.40816327,2.26530612,1.\Bq,0,-1.28571429,2.26530612,1.\Bq,0
 ,-1.16326531,2.26530612,1.\Bq,0,-1.04081633,2.26530612,1.\Bq,0,-0.9183
 6735,2.26530612,1.\Bq,0,-0.79591837,2.26530612,1.\Bq,0,-0.67346939,2.2
 6530612,1.\Bq,0,-0.55102041,2.26530612,1.\Bq,0,-0.42857143,2.26530612,
 1.\Bq,0,-0.30612245,2.26530612,1.\Bq,0,-0.18367347,2.26530612,1.\Bq,0,
 -0.06122449,2.26530612,1.\Bq,0,0.06122449,2.26530612,1.\Bq,0,0.1836734
 7,2.26530612,1.\Bq,0,0.30612245,2.26530612,1.\Bq,0,0.42857143,2.265306
 12,1.\Bq,0,0.55102041,2.26530612,1.\Bq,0,0.67346939,2.26530612,1.\Bq,0
 ,0.79591837,2.26530612,1.\Bq,0,0.91836735,2.26530612,1.\Bq,0,1.0408163
 3,2.26530612,1.\Bq,0,1.16326531,2.26530612,1.\Bq,0,1.28571429,2.265306
 12,1.\Bq,0,1.40816327,2.26530612,1.\Bq,0,1.53061224,2.26530612,1.\Bq,0
 ,1.65306122,2.26530612,1.\Bq,0,1.7755102,2.26530612,1.\Bq,0,1.89795918
 ,2.26530612,1.\Bq,0,2.02040816,2.26530612,1.\Bq,0,2.14285714,2.2653061
 2,1.\Bq,0,2.26530612,2.26530612,1.\Bq,0,2.3877551,2.26530612,1.\Bq,0,2
 .51020408,2.26530612,1.\Bq,0,2.63265306,2.26530612,1.\Bq,0,2.75510204,
 2.26530612,1.\Bq,0,2.87755102,2.26530612,1.\Bq,0,3.,2.26530612,1.\Bq,0
 ,-3.,2.3877551,1.\Bq,0,-2.87755102,2.3877551,1.\Bq,0,-2.75510204,2.387
 7551,1.\Bq,0,-2.63265306,2.3877551,1.\Bq,0,-2.51020408,2.3877551,1.\Bq
 ,0,-2.3877551,2.3877551,1.\Bq,0,-2.26530612,2.3877551,1.\Bq,0,-2.14285
 714,2.3877551,1.\Bq,0,-2.02040816,2.3877551,1.\Bq,0,-1.89795918,2.3877
 551,1.\Bq,0,-1.7755102,2.3877551,1.\Bq,0,-1.65306122,2.3877551,1.\Bq,0
 ,-1.53061224,2.3877551,1.\Bq,0,-1.40816327,2.3877551,1.\Bq,0,-1.285714
 29,2.3877551,1.\Bq,0,-1.16326531,2.3877551,1.\Bq,0,-1.04081633,2.38775
 51,1.\Bq,0,-0.91836735,2.3877551,1.\Bq,0,-0.79591837,2.3877551,1.\Bq,0
 ,-0.67346939,2.3877551,1.\Bq,0,-0.55102041,2.3877551,1.\Bq,0,-0.428571
 43,2.3877551,1.\Bq,0,-0.30612245,2.3877551,1.\Bq,0,-0.18367347,2.38775
 51,1.\Bq,0,-0.06122449,2.3877551,1.\Bq,0,0.06122449,2.3877551,1.\Bq,0,
 0.18367347,2.3877551,1.\Bq,0,0.30612245,2.3877551,1.\Bq,0,0.42857143,2
 .3877551,1.\Bq,0,0.55102041,2.3877551,1.\Bq,0,0.67346939,2.3877551,1.\
 Bq,0,0.79591837,2.3877551,1.\Bq,0,0.91836735,2.3877551,1.\Bq,0,1.04081
 633,2.3877551,1.\Bq,0,1.16326531,2.3877551,1.\Bq,0,1.28571429,2.387755
 1,1.\Bq,0,1.40816327,2.3877551,1.\Bq,0,1.53061224,2.3877551,1.\Bq,0,1.
 65306122,2.3877551,1.\Bq,0,1.7755102,2.3877551,1.\Bq,0,1.89795918,2.38
 77551,1.\Bq,0,2.02040816,2.3877551,1.\Bq,0,2.14285714,2.3877551,1.\Bq,
 0,2.26530612,2.3877551,1.\Bq,0,2.3877551,2.3877551,1.\Bq,0,2.51020408,
 2.3877551,1.\Bq,0,2.63265306,2.3877551,1.\Bq,0,2.75510204,2.3877551,1.
 \Bq,0,2.87755102,2.3877551,1.\Bq,0,3.,2.3877551,1.\Bq,0,-3.,2.51020408
 ,1.\Bq,0,-2.87755102,2.51020408,1.\Bq,0,-2.75510204,2.51020408,1.\Bq,0
 ,-2.63265306,2.51020408,1.\Bq,0,-2.51020408,2.51020408,1.\Bq,0,-2.3877
 551,2.51020408,1.\Bq,0,-2.26530612,2.51020408,1.\Bq,0,-2.14285714,2.51
 020408,1.\Bq,0,-2.02040816,2.51020408,1.\Bq,0,-1.89795918,2.51020408,1
 .\Bq,0,-1.7755102,2.51020408,1.\Bq,0,-1.65306122,2.51020408,1.\Bq,0,-1
 .53061224,2.51020408,1.\Bq,0,-1.40816327,2.51020408,1.\Bq,0,-1.2857142
 9,2.51020408,1.\Bq,0,-1.16326531,2.51020408,1.\Bq,0,-1.04081633,2.5102
 0408,1.\Bq,0,-0.91836735,2.51020408,1.\Bq,0,-0.79591837,2.51020408,1.\
 Bq,0,-0.67346939,2.51020408,1.\Bq,0,-0.55102041,2.51020408,1.\Bq,0,-0.
 42857143,2.51020408,1.\Bq,0,-0.30612245,2.51020408,1.\Bq,0,-0.18367347
 ,2.51020408,1.\Bq,0,-0.06122449,2.51020408,1.\Bq,0,0.06122449,2.510204
 08,1.\Bq,0,0.18367347,2.51020408,1.\Bq,0,0.30612245,2.51020408,1.\Bq,0
 ,0.42857143,2.51020408,1.\Bq,0,0.55102041,2.51020408,1.\Bq,0,0.6734693
 9,2.51020408,1.\Bq,0,0.79591837,2.51020408,1.\Bq,0,0.91836735,2.510204
 08,1.\Bq,0,1.04081633,2.51020408,1.\Bq,0,1.16326531,2.51020408,1.\Bq,0
 ,1.28571429,2.51020408,1.\Bq,0,1.40816327,2.51020408,1.\Bq,0,1.5306122
 4,2.51020408,1.\Bq,0,1.65306122,2.51020408,1.\Bq,0,1.7755102,2.5102040
 8,1.\Bq,0,1.89795918,2.51020408,1.\Bq,0,2.02040816,2.51020408,1.\Bq,0,
 2.14285714,2.51020408,1.\Bq,0,2.26530612,2.51020408,1.\Bq,0,2.3877551,
 2.51020408,1.\Bq,0,2.51020408,2.51020408,1.\Bq,0,2.63265306,2.51020408
 ,1.\Bq,0,2.75510204,2.51020408,1.\Bq,0,2.87755102,2.51020408,1.\Bq,0,3
 .,2.51020408,1.\Bq,0,-3.,2.63265306,1.\Bq,0,-2.87755102,2.63265306,1.\
 Bq,0,-2.75510204,2.63265306,1.\Bq,0,-2.63265306,2.63265306,1.\Bq,0,-2.
 51020408,2.63265306,1.\Bq,0,-2.3877551,2.63265306,1.\Bq,0,-2.26530612,
 2.63265306,1.\Bq,0,-2.14285714,2.63265306,1.\Bq,0,-2.02040816,2.632653
 06,1.\Bq,0,-1.89795918,2.63265306,1.\Bq,0,-1.7755102,2.63265306,1.\Bq,
 0,-1.65306122,2.63265306,1.\Bq,0,-1.53061224,2.63265306,1.\Bq,0,-1.408
 16327,2.63265306,1.\Bq,0,-1.28571429,2.63265306,1.\Bq,0,-1.16326531,2.
 63265306,1.\Bq,0,-1.04081633,2.63265306,1.\Bq,0,-0.91836735,2.63265306
 ,1.\Bq,0,-0.79591837,2.63265306,1.\Bq,0,-0.67346939,2.63265306,1.\Bq,0
 ,-0.55102041,2.63265306,1.\Bq,0,-0.42857143,2.63265306,1.\Bq,0,-0.3061
 2245,2.63265306,1.\Bq,0,-0.18367347,2.63265306,1.\Bq,0,-0.06122449,2.6
 3265306,1.\Bq,0,0.06122449,2.63265306,1.\Bq,0,0.18367347,2.63265306,1.
 \Bq,0,0.30612245,2.63265306,1.\Bq,0,0.42857143,2.63265306,1.\Bq,0,0.55
 102041,2.63265306,1.\Bq,0,0.67346939,2.63265306,1.\Bq,0,0.79591837,2.6
 3265306,1.\Bq,0,0.91836735,2.63265306,1.\Bq,0,1.04081633,2.63265306,1.
 \Bq,0,1.16326531,2.63265306,1.\Bq,0,1.28571429,2.63265306,1.\Bq,0,1.40
 816327,2.63265306,1.\Bq,0,1.53061224,2.63265306,1.\Bq,0,1.65306122,2.6
 3265306,1.\Bq,0,1.7755102,2.63265306,1.\Bq,0,1.89795918,2.63265306,1.\
 Bq,0,2.02040816,2.63265306,1.\Bq,0,2.14285714,2.63265306,1.\Bq,0,2.265
 30612,2.63265306,1.\Bq,0,2.3877551,2.63265306,1.\Bq,0,2.51020408,2.632
 65306,1.\Bq,0,2.63265306,2.63265306,1.\Bq,0,2.75510204,2.63265306,1.\B
 q,0,2.87755102,2.63265306,1.\Bq,0,3.,2.63265306,1.\Bq,0,-3.,2.75510204
 ,1.\Bq,0,-2.87755102,2.75510204,1.\Bq,0,-2.75510204,2.75510204,1.\Bq,0
 ,-2.63265306,2.75510204,1.\Bq,0,-2.51020408,2.75510204,1.\Bq,0,-2.3877
 551,2.75510204,1.\Bq,0,-2.26530612,2.75510204,1.\Bq,0,-2.14285714,2.75
 510204,1.\Bq,0,-2.02040816,2.75510204,1.\Bq,0,-1.89795918,2.75510204,1
 .\Bq,0,-1.7755102,2.75510204,1.\Bq,0,-1.65306122,2.75510204,1.\Bq,0,-1
 .53061224,2.75510204,1.\Bq,0,-1.40816327,2.75510204,1.\Bq,0,-1.2857142
 9,2.75510204,1.\Bq,0,-1.16326531,2.75510204,1.\Bq,0,-1.04081633,2.7551
 0204,1.\Bq,0,-0.91836735,2.75510204,1.\Bq,0,-0.79591837,2.75510204,1.\
 Bq,0,-0.67346939,2.75510204,1.\Bq,0,-0.55102041,2.75510204,1.\Bq,0,-0.
 42857143,2.75510204,1.\Bq,0,-0.30612245,2.75510204,1.\Bq,0,-0.18367347
 ,2.75510204,1.\Bq,0,-0.06122449,2.75510204,1.\Bq,0,0.06122449,2.755102
 04,1.\Bq,0,0.18367347,2.75510204,1.\Bq,0,0.30612245,2.75510204,1.\Bq,0
 ,0.42857143,2.75510204,1.\Bq,0,0.55102041,2.75510204,1.\Bq,0,0.6734693
 9,2.75510204,1.\Bq,0,0.79591837,2.75510204,1.\Bq,0,0.91836735,2.755102
 04,1.\Bq,0,1.04081633,2.75510204,1.\Bq,0,1.16326531,2.75510204,1.\Bq,0
 ,1.28571429,2.75510204,1.\Bq,0,1.40816327,2.75510204,1.\Bq,0,1.5306122
 4,2.75510204,1.\Bq,0,1.65306122,2.75510204,1.\Bq,0,1.7755102,2.7551020
 4,1.\Bq,0,1.89795918,2.75510204,1.\Bq,0,2.02040816,2.75510204,1.\Bq,0,
 2.14285714,2.75510204,1.\Bq,0,2.26530612,2.75510204,1.\Bq,0,2.3877551,
 2.75510204,1.\Bq,0,2.51020408,2.75510204,1.\Bq,0,2.63265306,2.75510204
 ,1.\Bq,0,2.75510204,2.75510204,1.\Bq,0,2.87755102,2.75510204,1.\Bq,0,3
 .,2.75510204,1.\Bq,0,-3.,2.87755102,1.\Bq,0,-2.87755102,2.87755102,1.\
 Bq,0,-2.75510204,2.87755102,1.\Bq,0,-2.63265306,2.87755102,1.\Bq,0,-2.
 51020408,2.87755102,1.\Bq,0,-2.3877551,2.87755102,1.\Bq,0,-2.26530612,
 2.87755102,1.\Bq,0,-2.14285714,2.87755102,1.\Bq,0,-2.02040816,2.877551
 02,1.\Bq,0,-1.89795918,2.87755102,1.\Bq,0,-1.7755102,2.87755102,1.\Bq,
 0,-1.65306122,2.87755102,1.\Bq,0,-1.53061224,2.87755102,1.\Bq,0,-1.408
 16327,2.87755102,1.\Bq,0,-1.28571429,2.87755102,1.\Bq,0,-1.16326531,2.
 87755102,1.\Bq,0,-1.04081633,2.87755102,1.\Bq,0,-0.91836735,2.87755102
 ,1.\Bq,0,-0.79591837,2.87755102,1.\Bq,0,-0.67346939,2.87755102,1.\Bq,0
 ,-0.55102041,2.87755102,1.\Bq,0,-0.42857143,2.87755102,1.\Bq,0,-0.3061
 2245,2.87755102,1.\Bq,0,-0.18367347,2.87755102,1.\Bq,0,-0.06122449,2.8
 7755102,1.\Bq,0,0.06122449,2.87755102,1.\Bq,0,0.18367347,2.87755102,1.
 \Bq,0,0.30612245,2.87755102,1.\Bq,0,0.42857143,2.87755102,1.\Bq,0,0.55
 102041,2.87755102,1.\Bq,0,0.67346939,2.87755102,1.\Bq,0,0.79591837,2.8
 7755102,1.\Bq,0,0.91836735,2.87755102,1.\Bq,0,1.04081633,2.87755102,1.
 \Bq,0,1.16326531,2.87755102,1.\Bq,0,1.28571429,2.87755102,1.\Bq,0,1.40
 816327,2.87755102,1.\Bq,0,1.53061224,2.87755102,1.\Bq,0,1.65306122,2.8
 7755102,1.\Bq,0,1.7755102,2.87755102,1.\Bq,0,1.89795918,2.87755102,1.\
 Bq,0,2.02040816,2.87755102,1.\Bq,0,2.14285714,2.87755102,1.\Bq,0,2.265
 30612,2.87755102,1.\Bq,0,2.3877551,2.87755102,1.\Bq,0,2.51020408,2.877
 55102,1.\Bq,0,2.63265306,2.87755102,1.\Bq,0,2.75510204,2.87755102,1.\B
 q,0,2.87755102,2.87755102,1.\Bq,0,3.,2.87755102,1.\Bq,0,-3.,3.,1.\Bq,0
 ,-2.87755102,3.,1.\Bq,0,-2.75510204,3.,1.\Bq,0,-2.63265306,3.,1.\Bq,0,
 -2.51020408,3.,1.\Bq,0,-2.3877551,3.,1.\Bq,0,-2.26530612,3.,1.\Bq,0,-2
 .14285714,3.,1.\Bq,0,-2.02040816,3.,1.\Bq,0,-1.89795918,3.,1.\Bq,0,-1.
 7755102,3.,1.\Bq,0,-1.65306122,3.,1.\Bq,0,-1.53061224,3.,1.\Bq,0,-1.40
 816327,3.,1.\Bq,0,-1.28571429,3.,1.\Bq,0,-1.16326531,3.,1.\Bq,0,-1.040
 81633,3.,1.\Bq,0,-0.91836735,3.,1.\Bq,0,-0.79591837,3.,1.\Bq,0,-0.6734
 6939,3.,1.\Bq,0,-0.55102041,3.,1.\Bq,0,-0.42857143,3.,1.\Bq,0,-0.30612
 245,3.,1.\Bq,0,-0.18367347,3.,1.\Bq,0,-0.06122449,3.,1.\Bq,0,0.0612244
 9,3.,1.\Bq,0,0.18367347,3.,1.\Bq,0,0.30612245,3.,1.\Bq,0,0.42857143,3.
 ,1.\Bq,0,0.55102041,3.,1.\Bq,0,0.67346939,3.,1.\Bq,0,0.79591837,3.,1.\
 Bq,0,0.91836735,3.,1.\Bq,0,1.04081633,3.,1.\Bq,0,1.16326531,3.,1.\Bq,0
 ,1.28571429,3.,1.\Bq,0,1.40816327,3.,1.\Bq,0,1.53061224,3.,1.\Bq,0,1.6
 5306122,3.,1.\Bq,0,1.7755102,3.,1.\Bq,0,1.89795918,3.,1.\Bq,0,2.020408
 16,3.,1.\Bq,0,2.14285714,3.,1.\Bq,0,2.26530612,3.,1.\Bq,0,2.3877551,3.
 ,1.\Bq,0,2.51020408,3.,1.\Bq,0,2.63265306,3.,1.\Bq,0,2.75510204,3.,1.\
 Bq,0,2.87755102,3.,1.\Bq,0,3.,3.,1.\\Version=EM64L-G09RevD.01\HF=-232.
 2486489\RMSD=7.870e-09\Dipole=0.,-0.0000032,0.\Quadrupole=1.7774195,1.
 7773345,-3.5547541,0.,0.,0.\PG=C01 [X(C6H6)]\\@


 FOR THE NATURE OF THE CHEMICAL BOND
 IS THE PROBLEM AT THE HEART OF ALL CHEMISTRY.

                     -- BRYCE CRAWFORD, JR., 1953
 Job cpu time:       0 days  0 hours  2 minutes 20.9 seconds.
 File lengths (MBytes):  RWF=     14 Int=      0 D2E=      0 Chk=      6 Scr=      1
 Normal termination of Gaussian 09 at Sun Nov 17 11:08:20 2019.
