 Entering Gaussian System, Link 0=g09
 Input=as.gjf
 Output=as.log
 Initial command:
 /opt/local/g09/l1.exe "/home/scratch/oscar/Gau-35835.inp" -scrdir="/home/scratch/oscar/"
 Default is to use a total of  16 processors:
                               16 via shared-memory
                                1 via Linda
 Entering Link 1 = /opt/local/g09/l1.exe PID=     35836.
  
 Copyright (c) 1988,1990,1992,1993,1995,1998,2003,2009,2013,
            Gaussian, Inc.  All Rights Reserved.
  
 This is part of the Gaussian(R) 09 program.  It is based on
 the Gaussian(R) 03 system (copyright 2003, Gaussian, Inc.),
 the Gaussian(R) 98 system (copyright 1998, Gaussian, Inc.),
 the Gaussian(R) 94 system (copyright 1995, Gaussian, Inc.),
 the Gaussian 92(TM) system (copyright 1992, Gaussian, Inc.),
 the Gaussian 90(TM) system (copyright 1990, Gaussian, Inc.),
 the Gaussian 88(TM) system (copyright 1988, Gaussian, Inc.),
 the Gaussian 86(TM) system (copyright 1986, Carnegie Mellon
 University), and the Gaussian 82(TM) system (copyright 1983,
 Carnegie Mellon University). Gaussian is a federally registered
 trademark of Gaussian, Inc.
  
 This software contains proprietary and confidential information,
 including trade secrets, belonging to Gaussian, Inc.
  
 This software is provided under written license and may be
 used, copied, transmitted, or stored only in accord with that
 written license.
  
 The following legend is applicable only to US Government
 contracts under FAR:
  
                    RESTRICTED RIGHTS LEGEND
  
 Use, reproduction and disclosure by the US Government is
 subject to restrictions as set forth in subparagraphs (a)
 and (c) of the Commercial Computer Software - Restricted
 Rights clause in FAR 52.227-19.
  
 Gaussian, Inc.
 340 Quinnipiac St., Bldg. 40, Wallingford CT 06492
  
  
 ---------------------------------------------------------------
 Warning -- This program may not be used in any manner that
 competes with the business of Gaussian, Inc. or will provide
 assistance to any competitor of Gaussian, Inc.  The licensee
 of this program is prohibited from giving any competitor of
 Gaussian, Inc. access to this program.  By using this program,
 the user acknowledges that Gaussian, Inc. is engaged in the
 business of creating and licensing software in the field of
 computational chemistry and represents and warrants to the
 licensee that it is not a competitor of Gaussian, Inc. and that
 it will not use this program in any manner prohibited above.
 ---------------------------------------------------------------
  

 Cite this work as:
 Gaussian 09, Revision D.01,
 M. J. Frisch, G. W. Trucks, H. B. Schlegel, G. E. Scuseria, 
 M. A. Robb, J. R. Cheeseman, G. Scalmani, V. Barone, B. Mennucci, 
 G. A. Petersson, H. Nakatsuji, M. Caricato, X. Li, H. P. Hratchian, 
 A. F. Izmaylov, J. Bloino, G. Zheng, J. L. Sonnenberg, M. Hada, 
 M. Ehara, K. Toyota, R. Fukuda, J. Hasegawa, M. Ishida, T. Nakajima, 
 Y. Honda, O. Kitao, H. Nakai, T. Vreven, J. A. Montgomery, Jr., 
 J. E. Peralta, F. Ogliaro, M. Bearpark, J. J. Heyd, E. Brothers, 
 K. N. Kudin, V. N. Staroverov, T. Keith, R. Kobayashi, J. Normand, 
 K. Raghavachari, A. Rendell, J. C. Burant, S. S. Iyengar, J. Tomasi, 
 M. Cossi, N. Rega, J. M. Millam, M. Klene, J. E. Knox, J. B. Cross, 
 V. Bakken, C. Adamo, J. Jaramillo, R. Gomperts, R. E. Stratmann, 
 O. Yazyev, A. J. Austin, R. Cammi, C. Pomelli, J. W. Ochterski, 
 R. L. Martin, K. Morokuma, V. G. Zakrzewski, G. A. Voth, 
 P. Salvador, J. J. Dannenberg, S. Dapprich, A. D. Daniels, 
 O. Farkas, J. B. Foresman, J. V. Ortiz, J. Cioslowski, 
 and D. J. Fox, Gaussian, Inc., Wallingford CT, 2013.
 
 ******************************************
 Gaussian 09:  EM64L-G09RevD.01 24-Apr-2013
                 9-Apr-2019 
 ******************************************
 -------------------------------------------------------------
 # nmr=giao b3lyp/6-31G* nosymm geom=connectivity guess=huckel
 -------------------------------------------------------------
 1/38=1,57=2/1;
 2/12=2,15=1,17=6,18=5,40=1/2;
 3/5=1,6=6,7=1,11=2,16=1,25=1,30=1,74=-5/1,2,8,3;
 4/11=4/1;
 5/5=2,38=5/2;
 8/6=1,10=90,11=11/1;
 10/13=100,31=1,45=16/2;
 6/7=2,8=2,9=2,10=2,28=1/1;
 99/9=1/99;
 -----
 input
 -----
 Symbolic Z-matrix:
 Charge =  0 Multiplicity = 1
 C                    -1.86206   0.14656  0. 
 C                    -1.17122   1.45502  0. 
 C                     0.14904   1.86475  0. 
 C                     1.45749   1.1739   0. 
 C                     1.86723  -0.14635   0. 
 C                     1.17638  -1.45481   0. 
 C                    -0.14387  -1.86454   0. 
 C                    -1.45233  -1.17369   0. 
 As                   -3.86386   2.08769  0. 
 As                   -2.08501  -3.86634   0. 
 As                    3.86902  -2.08748   0. 
 As                    2.09017   3.86655  0. 
 As                   -4.25923  -1.27499   0. 
 As                   -1.27252   4.26192  -0.00001 
 As                    1.27768  -4.26171   0.00001 
 As                    4.26439   1.2752    0. 
 C                    -2.10403   2.56613  0. 
 C                     0.29697   3.30948  0. 
 C                     2.5686    2.10671  0. 
 C                     3.31196  -0.29428   0. 
 C                     2.10919  -2.56591   0. 
 C                    -0.2918   -3.30927   0. 
 C                    -2.56344  -2.1065    0. 
 C                    -3.3068    0.29449  0. 
 Bq                    2.08961  -6.75595   1.00001 
 Bq                    1.96145  -6.68828   1.00001 
 Bq                    1.83329  -6.62062   1.00001 
 Bq                    1.70513  -6.55295   1.00001 
 Bq                    1.57697  -6.48528   1.00001 
 Bq                    1.44881  -6.41762   1.00001 
 Bq                    1.32065  -6.34995   1.00001 
 Bq                    1.19248  -6.28228   1.00001 
 Bq                    1.06432  -6.21461   1.00001 
 Bq                    0.93616  -6.14695   1.00001 
 Bq                    0.808    -6.07928   1.00001 
 Bq                    0.67984  -6.01161   1.00001 
 Bq                    0.55168  -5.94395   1.00001 
 Bq                    0.42352  -5.87628   1.00001 
 Bq                    0.29536  -5.80861   1.00001 
 Bq                    0.1672   -5.74094   1.00001 
 Bq                    0.03904  -5.67328   1.00001 
 Bq                   -0.08912  -5.60561   1.00001 
 Bq                   -0.21728  -5.53794   1.00001 
 Bq                   -0.34544  -5.47028   1. 
 Bq                   -0.4736   -5.40261   1. 
 Bq                   -0.60176  -5.33494   1. 
 Bq                   -0.72993  -5.26727   1. 
 Bq                   -0.85809  -5.19961   1. 
 Bq                   -0.98625  -5.13194   1. 
 Bq                   -1.11441  -5.06427   1. 
 Bq                   -1.24257  -4.99661   1. 
 Bq                   -1.37073  -4.92894   1. 
 Bq                   -1.49889  -4.86127   1. 
 Bq                   -1.62705  -4.79361   1. 
 Bq                   -1.75521  -4.72594   1. 
 Bq                   -1.88337  -4.65827   1. 
 Bq                   -2.01153  -4.5906    1. 
 Bq                   -2.13969  -4.52294   1. 
 Bq                   -2.26785  -4.45527   1. 
 Bq                   -2.39601  -4.3876    1. 
 Bq                   -2.52417  -4.31994   1. 
 Bq                   -2.65234  -4.25227   1. 
 Bq                   -2.7805   -4.1846    1. 
 Bq                   -2.90866  -4.11693   1. 
 Bq                   -3.03682  -4.04927   1. 
 Bq                   -3.16498  -3.9816    1. 
 Bq                   -3.29314  -3.91393   1. 
 Bq                   -3.4213   -3.84627   1. 
 Bq                   -3.54946  -3.7786    1. 
 Bq                   -3.67762  -3.71093   1. 
 Bq                   -3.80578  -3.64326   1. 
 Bq                   -3.93394  -3.5756    1. 
 Bq                   -4.0621   -3.50793   1. 
 Bq                   -4.19026  -3.44026   1. 
 Bq                   -4.31842  -3.3726    1. 
 Bq                   -4.44658  -3.30493   1. 
 Bq                   -4.57475  -3.23726   1. 
 Bq                   -4.70291  -3.1696    1. 
 Bq                   -4.83107  -3.10193   1. 
 Bq                   -4.95923  -3.03426   1. 
 Bq                   -5.08739  -2.96659   1. 
 Bq                   -5.21555  -2.89893   1. 
 Bq                   -5.34371  -2.83126   1. 
 Bq                   -5.47187  -2.76359   1. 
 Bq                   -5.60003  -2.69593   1. 
 Bq                   -5.72819  -2.62826   1. 
 Bq                   -5.85635  -2.56059   1. 
 Bq                   -5.98451  -2.49292   1. 
 Bq                   -6.11267  -2.42526   1. 
 Bq                   -6.24083  -2.35759   1. 
 Bq                   -6.36899  -2.28992   1. 
 Bq                   -6.49715  -2.22226   1. 
 Bq                   -6.62532  -2.15459   1. 
 Bq                   -6.75348  -2.08692   1. 
 Bq                    2.15728  -6.62779   1.00001 
 Bq                    2.02912  -6.56012   1.00001 
 Bq                    1.90096  -6.49246   1.00001 
 Bq                    1.77279  -6.42479   1.00001 
 Bq                    1.64463  -6.35712   1.00001 
 Bq                    1.51647  -6.28945   1.00001 
 Bq                    1.38831  -6.22179   1.00001 
 Bq                    1.26015  -6.15412   1.00001 
 Bq                    1.13199  -6.08645   1.00001 
 Bq                    1.00383  -6.01879   1.00001 
 Bq                    0.87567  -5.95112   1.00001 
 Bq                    0.74751  -5.88345   1.00001 
 Bq                    0.61935  -5.81579   1.00001 
 Bq                    0.49119  -5.74812   1.00001 
 Bq                    0.36303  -5.68045   1.00001 
 Bq                    0.23487  -5.61278   1.00001 
 Bq                    0.10671  -5.54512   1.00001 
 Bq                   -0.02145  -5.47745   1.00001 
 Bq                   -0.14962  -5.40978   1. 
 Bq                   -0.27778  -5.34212   1. 
 Bq                   -0.40594  -5.27445   1. 
 Bq                   -0.5341   -5.20678   1. 
 Bq                   -0.66226  -5.13911   1. 
 Bq                   -0.79042  -5.07145   1. 
 Bq                   -0.91858  -5.00378   1. 
 Bq                   -1.04674  -4.93611   1. 
 Bq                   -1.1749   -4.86845   1. 
 Bq                   -1.30306  -4.80078   1. 
 Bq                   -1.43122  -4.73311   1. 
 Bq                   -1.55938  -4.66544   1. 
 Bq                   -1.68754  -4.59778   1. 
 Bq                   -1.8157   -4.53011   1. 
 Bq                   -1.94386  -4.46244   1. 
 Bq                   -2.07203  -4.39478   1. 
 Bq                   -2.20019  -4.32711   1. 
 Bq                   -2.32835  -4.25944   1. 
 Bq                   -2.45651  -4.19178   1. 
 Bq                   -2.58467  -4.12411   1. 
 Bq                   -2.71283  -4.05644   1. 
 Bq                   -2.84099  -3.98877   1. 
 Bq                   -2.96915  -3.92111   1. 
 Bq                   -3.09731  -3.85344   1. 
 Bq                   -3.22547  -3.78577   1. 
 Bq                   -3.35363  -3.71811   1. 
 Bq                   -3.48179  -3.65044   1. 
 Bq                   -3.60995  -3.58277   1. 
 Bq                   -3.73811  -3.5151    1. 
 Bq                   -3.86627  -3.44744   1. 
 Bq                   -3.99444  -3.37977   1. 
 Bq                   -4.1226   -3.3121    1. 
 Bq                   -4.25076  -3.24444   1. 
 Bq                   -4.37892  -3.17677   1. 
 Bq                   -4.50708  -3.1091    1. 
 Bq                   -4.63524  -3.04143   1. 
 Bq                   -4.7634   -2.97377   1. 
 Bq                   -4.89156  -2.9061    1. 
 Bq                   -5.01972  -2.83843   1. 
 Bq                   -5.14788  -2.77077   1. 
 Bq                   -5.27604  -2.7031    1. 
 Bq                   -5.4042   -2.63543   1. 
 Bq                   -5.53236  -2.56776   1. 
 Bq                   -5.66052  -2.5001    1. 
 Bq                   -5.78868  -2.43243   1. 
 Bq                   -5.91685  -2.36476   1. 
 Bq                   -6.04501  -2.2971    1. 
 Bq                   -6.17317  -2.22943   1. 
 Bq                   -6.30133  -2.16176   1. 
 Bq                   -6.42949  -2.0941    1. 
 Bq                   -6.55765  -2.02643   1. 
 Bq                   -6.68581  -1.95876   1. 
 Bq                    2.22494  -6.49963   1.00001 
 Bq                    2.09678  -6.43196   1.00001 
 Bq                    1.96862  -6.3643    1.00001 
 Bq                    1.84046  -6.29663   1.00001 
 Bq                    1.7123   -6.22896   1.00001 
 Bq                    1.58414  -6.16129   1.00001 
 Bq                    1.45598  -6.09363   1.00001 
 Bq                    1.32782  -6.02596   1.00001 
 Bq                    1.19966  -5.95829   1.00001 
 Bq                    1.0715   -5.89063   1.00001 
 Bq                    0.94334  -5.82296   1.00001 
 Bq                    0.81518  -5.75529   1.00001 
 Bq                    0.68702  -5.68762   1.00001 
 Bq                    0.55886  -5.61996   1.00001 
 Bq                    0.43069  -5.55229   1.00001 
 Bq                    0.30253  -5.48462   1.00001 
 Bq                    0.17437  -5.41696   1.00001 
 Bq                    0.04621  -5.34929   1. 
 Bq                   -0.08195  -5.28162   1. 
 Bq                   -0.21011  -5.21395   1. 
 Bq                   -0.33827  -5.14629   1. 
 Bq                   -0.46643  -5.07862   1. 
 Bq                   -0.59459  -5.01095   1. 
 Bq                   -0.72275  -4.94329   1. 
 Bq                   -0.85091  -4.87562   1. 
 Bq                   -0.97907  -4.80795   1. 
 Bq                   -1.10723  -4.74029   1. 
 Bq                   -1.23539  -4.67262   1. 
 Bq                   -1.36355  -4.60495   1. 
 Bq                   -1.49172  -4.53728   1. 
 Bq                   -1.61988  -4.46962   1. 
 Bq                   -1.74804  -4.40195   1. 
 Bq                   -1.8762   -4.33428   1. 
 Bq                   -2.00436  -4.26662   1. 
 Bq                   -2.13252  -4.19895   1. 
 Bq                   -2.26068  -4.13128   1. 
 Bq                   -2.38884  -4.06361   1. 
 Bq                   -2.517    -3.99595   1. 
 Bq                   -2.64516  -3.92828   1. 
 Bq                   -2.77332  -3.86061   1. 
 Bq                   -2.90148  -3.79295   1. 
 Bq                   -3.02964  -3.72528   1. 
 Bq                   -3.1578   -3.65761   1. 
 Bq                   -3.28596  -3.58994   1. 
 Bq                   -3.41413  -3.52228   1. 
 Bq                   -3.54229  -3.45461   1. 
 Bq                   -3.67045  -3.38694   1. 
 Bq                   -3.79861  -3.31928   1. 
 Bq                   -3.92677  -3.25161   1. 
 Bq                   -4.05493  -3.18394   1. 
 Bq                   -4.18309  -3.11628   1. 
 Bq                   -4.31125  -3.04861   1. 
 Bq                   -4.43941  -2.98094   1. 
 Bq                   -4.56757  -2.91327   1. 
 Bq                   -4.69573  -2.84561   1. 
 Bq                   -4.82389  -2.77794   1. 
 Bq                   -4.95205  -2.71027   1. 
 Bq                   -5.08021  -2.64261   1. 
 Bq                   -5.20837  -2.57494   1. 
 Bq                   -5.33654  -2.50727   1. 
 Bq                   -5.4647   -2.4396    1. 
 Bq                   -5.59286  -2.37194   1. 
 Bq                   -5.72102  -2.30427   1. 
 Bq                   -5.84918  -2.2366    1. 
 Bq                   -5.97734  -2.16894   1. 
 Bq                   -6.1055   -2.10127   1. 
 Bq                   -6.23366  -2.0336    1. 
 Bq                   -6.36182  -1.96593   1. 
 Bq                   -6.48998  -1.89827   1. 
 Bq                   -6.61814  -1.8306    1. 
 Bq                    2.29261  -6.37147   1.00001 
 Bq                    2.16445  -6.3038    1.00001 
 Bq                    2.03629  -6.23613   1.00001 
 Bq                    1.90813  -6.16847   1.00001 
 Bq                    1.77997  -6.1008    1.00001 
 Bq                    1.65181  -6.03313   1.00001 
 Bq                    1.52365  -5.96547   1.00001 
 Bq                    1.39549  -5.8978    1.00001 
 Bq                    1.26733  -5.83013   1.00001 
 Bq                    1.13916  -5.76247   1.00001 
 Bq                    1.011    -5.6948    1.00001 
 Bq                    0.88284  -5.62713   1.00001 
 Bq                    0.75468  -5.55946   1.00001 
 Bq                    0.62652  -5.4918    1.00001 
 Bq                    0.49836  -5.42413   1.00001 
 Bq                    0.3702   -5.35646   1.00001 
 Bq                    0.24204  -5.2888    1. 
 Bq                    0.11388  -5.22113   1. 
 Bq                   -0.01428  -5.15346   1. 
 Bq                   -0.14244  -5.08579   1. 
 Bq                   -0.2706   -5.01813   1. 
 Bq                   -0.39876  -4.95046   1. 
 Bq                   -0.52692  -4.88279   1. 
 Bq                   -0.65508  -4.81513   1. 
 Bq                   -0.78325  -4.74746   1. 
 Bq                   -0.91141  -4.67979   1. 
 Bq                   -1.03957  -4.61212   1. 
 Bq                   -1.16773  -4.54446   1. 
 Bq                   -1.29589  -4.47679   1. 
 Bq                   -1.42405  -4.40912   1. 
 Bq                   -1.55221  -4.34146   1. 
 Bq                   -1.68037  -4.27379   1. 
 Bq                   -1.80853  -4.20612   1. 
 Bq                   -1.93669  -4.13845   1. 
 Bq                   -2.06485  -4.07079   1. 
 Bq                   -2.19301  -4.00312   1. 
 Bq                   -2.32117  -3.93545   1. 
 Bq                   -2.44933  -3.86779   1. 
 Bq                   -2.57749  -3.80012   1. 
 Bq                   -2.70566  -3.73245   1. 
 Bq                   -2.83382  -3.66479   1. 
 Bq                   -2.96198  -3.59712   1. 
 Bq                   -3.09014  -3.52945   1. 
 Bq                   -3.2183   -3.46178   1. 
 Bq                   -3.34646  -3.39412   1. 
 Bq                   -3.47462  -3.32645   1. 
 Bq                   -3.60278  -3.25878   1. 
 Bq                   -3.73094  -3.19112   1. 
 Bq                   -3.8591   -3.12345   1. 
 Bq                   -3.98726  -3.05578   1. 
 Bq                   -4.11542  -2.98811   1. 
 Bq                   -4.24358  -2.92045   1. 
 Bq                   -4.37174  -2.85278   1. 
 Bq                   -4.4999   -2.78511   1. 
 Bq                   -4.62807  -2.71745   1. 
 Bq                   -4.75623  -2.64978   1. 
 Bq                   -4.88439  -2.58211   1. 
 Bq                   -5.01255  -2.51444   1. 
 Bq                   -5.14071  -2.44678   1. 
 Bq                   -5.26887  -2.37911   1. 
 Bq                   -5.39703  -2.31144   1. 
 Bq                   -5.52519  -2.24378   1. 
 Bq                   -5.65335  -2.17611   1. 
 Bq                   -5.78151  -2.10844   1. 
 Bq                   -5.90967  -2.04078   1. 
 Bq                   -6.03783  -1.97311   1. 
 Bq                   -6.16599  -1.90544   1. 
 Bq                   -6.29415  -1.83777   1. 
 Bq                   -6.42231  -1.77011   1. 
 Bq                   -6.55048  -1.70244   1. 
 Bq                    2.36028  -6.24331   1.00001 
 Bq                    2.23212  -6.17564   1.00001 
 Bq                    2.10396  -6.10797   1.00001 
 Bq                    1.9758   -6.04031   1.00001 
 Bq                    1.84764  -5.97264   1.00001 
 Bq                    1.71947  -5.90497   1.00001 
 Bq                    1.59131  -5.83731   1.00001 
 Bq                    1.46315  -5.76964   1.00001 
 Bq                    1.33499  -5.70197   1.00001 
 Bq                    1.20683  -5.6343    1.00001 
 Bq                    1.07867  -5.56664   1.00001 
 Bq                    0.95051  -5.49897   1.00001 
 Bq                    0.82235  -5.4313    1.00001 
 Bq                    0.69419  -5.36364   1.00001 
 Bq                    0.56603  -5.29597   1.00001 
 Bq                    0.43787  -5.2283    1. 
 Bq                    0.30971  -5.16063   1. 
 Bq                    0.18155  -5.09297   1. 
 Bq                    0.05339  -5.0253    1. 
 Bq                   -0.07477  -4.95763   1. 
 Bq                   -0.20294  -4.88997   1. 
 Bq                   -0.3311   -4.8223    1. 
 Bq                   -0.45926  -4.75463   1. 
 Bq                   -0.58742  -4.68697   1. 
 Bq                   -0.71558  -4.6193    1. 
 Bq                   -0.84374  -4.55163   1. 
 Bq                   -0.9719   -4.48396   1. 
 Bq                   -1.10006  -4.4163    1. 
 Bq                   -1.22822  -4.34863   1. 
 Bq                   -1.35638  -4.28096   1. 
 Bq                   -1.48454  -4.2133    1. 
 Bq                   -1.6127   -4.14563   1. 
 Bq                   -1.74086  -4.07796   1. 
 Bq                   -1.86902  -4.01029   1. 
 Bq                   -1.99718  -3.94263   1. 
 Bq                   -2.12535  -3.87496   1. 
 Bq                   -2.25351  -3.80729   1. 
 Bq                   -2.38167  -3.73963   1. 
 Bq                   -2.50983  -3.67196   1. 
 Bq                   -2.63799  -3.60429   1. 
 Bq                   -2.76615  -3.53662   1. 
 Bq                   -2.89431  -3.46896   1. 
 Bq                   -3.02247  -3.40129   1. 
 Bq                   -3.15063  -3.33362   1. 
 Bq                   -3.27879  -3.26596   1. 
 Bq                   -3.40695  -3.19829   1. 
 Bq                   -3.53511  -3.13062   1. 
 Bq                   -3.66327  -3.06296   1. 
 Bq                   -3.79143  -2.99529   1. 
 Bq                   -3.91959  -2.92762   1. 
 Bq                   -4.04776  -2.85995   1. 
 Bq                   -4.17592  -2.79229   1. 
 Bq                   -4.30408  -2.72462   1. 
 Bq                   -4.43224  -2.65695   1. 
 Bq                   -4.5604   -2.58929   1. 
 Bq                   -4.68856  -2.52162   1. 
 Bq                   -4.81672  -2.45395   1. 
 Bq                   -4.94488  -2.38628   1. 
 Bq                   -5.07304  -2.31862   1. 
 Bq                   -5.2012   -2.25095   1. 
 Bq                   -5.32936  -2.18328   1. 
 Bq                   -5.45752  -2.11562   1. 
 Bq                   -5.58568  -2.04795   1. 
 Bq                   -5.71384  -1.98028   1. 
 Bq                   -5.842    -1.91261   1. 
 Bq                   -5.97017  -1.84495   1. 
 Bq                   -6.09833  -1.77728   1. 
 Bq                   -6.22649  -1.70961   1. 
 Bq                   -6.35465  -1.64195   1. 
 Bq                   -6.48281  -1.57428   1. 
 Bq                    2.42794  -6.11515   1.00001 
 Bq                    2.29978  -6.04748   1.00001 
 Bq                    2.17162  -5.97981   1.00001 
 Bq                    2.04346  -5.91215   1.00001 
 Bq                    1.9153   -5.84448   1.00001 
 Bq                    1.78714  -5.77681   1.00001 
 Bq                    1.65898  -5.70915   1.00001 
 Bq                    1.53082  -5.64148   1.00001 
 Bq                    1.40266  -5.57381   1.00001 
 Bq                    1.2745   -5.50614   1.00001 
 Bq                    1.14634  -5.43848   1.00001 
 Bq                    1.01818  -5.37081   1.00001 
 Bq                    0.89002  -5.30314   1.00001 
 Bq                    0.76186  -5.23548   1.00001 
 Bq                    0.6337   -5.16781   1. 
 Bq                    0.50553  -5.10014   1. 
 Bq                    0.37737  -5.03247   1. 
 Bq                    0.24921  -4.96481   1. 
 Bq                    0.12105  -4.89714   1. 
 Bq                   -0.00711  -4.82947   1. 
 Bq                   -0.13527  -4.76181   1. 
 Bq                   -0.26343  -4.69414   1. 
 Bq                   -0.39159  -4.62647   1. 
 Bq                   -0.51975  -4.5588    1. 
 Bq                   -0.64791  -4.49114   1. 
 Bq                   -0.77607  -4.42347   1. 
 Bq                   -0.90423  -4.3558    1. 
 Bq                   -1.03239  -4.28814   1. 
 Bq                   -1.16055  -4.22047   1. 
 Bq                   -1.28871  -4.1528    1. 
 Bq                   -1.41687  -4.08513   1. 
 Bq                   -1.54504  -4.01747   1. 
 Bq                   -1.6732   -3.9498    1. 
 Bq                   -1.80136  -3.88213   1. 
 Bq                   -1.92952  -3.81447   1. 
 Bq                   -2.05768  -3.7468    1. 
 Bq                   -2.18584  -3.67913   1. 
 Bq                   -2.314    -3.61147   1. 
 Bq                   -2.44216  -3.5438    1. 
 Bq                   -2.57032  -3.47613   1. 
 Bq                   -2.69848  -3.40846   1. 
 Bq                   -2.82664  -3.3408    1. 
 Bq                   -2.9548   -3.27313   1. 
 Bq                   -3.08296  -3.20546   1. 
 Bq                   -3.21112  -3.1378    1. 
 Bq                   -3.33928  -3.07013   1. 
 Bq                   -3.46745  -3.00246   1. 
 Bq                   -3.59561  -2.93479   1. 
 Bq                   -3.72377  -2.86713   1. 
 Bq                   -3.85193  -2.79946   1. 
 Bq                   -3.98009  -2.73179   1. 
 Bq                   -4.10825  -2.66413   1. 
 Bq                   -4.23641  -2.59646   1. 
 Bq                   -4.36457  -2.52879   1. 
 Bq                   -4.49273  -2.46112   1. 
 Bq                   -4.62089  -2.39346   1. 
 Bq                   -4.74905  -2.32579   1. 
 Bq                   -4.87721  -2.25812   1. 
 Bq                   -5.00537  -2.19046   1. 
 Bq                   -5.13353  -2.12279   1. 
 Bq                   -5.26169  -2.05512   1. 
 Bq                   -5.38986  -1.98746   1. 
 Bq                   -5.51802  -1.91979   1. 
 Bq                   -5.64618  -1.85212   1. 
 Bq                   -5.77434  -1.78445   1. 
 Bq                   -5.9025   -1.71679   1. 
 Bq                   -6.03066  -1.64912   1. 
 Bq                   -6.15882  -1.58145   1. 
 Bq                   -6.28698  -1.51379   1. 
 Bq                   -6.41514  -1.44612   1. 
 Bq                    2.49561  -5.98699   1.00001 
 Bq                    2.36745  -5.91932   1.00001 
 Bq                    2.23929  -5.85165   1.00001 
 Bq                    2.11113  -5.78399   1.00001 
 Bq                    1.98297  -5.71632   1.00001 
 Bq                    1.85481  -5.64865   1.00001 
 Bq                    1.72665  -5.58098   1.00001 
 Bq                    1.59849  -5.51332   1.00001 
 Bq                    1.47033  -5.44565   1.00001 
 Bq                    1.34217  -5.37798   1.00001 
 Bq                    1.21401  -5.31032   1.00001 
 Bq                    1.08584  -5.24265   1.00001 
 Bq                    0.95768  -5.17498   1.00001 
 Bq                    0.82952  -5.10731   1. 
 Bq                    0.70136  -5.03965   1. 
 Bq                    0.5732   -4.97198   1. 
 Bq                    0.44504  -4.90431   1. 
 Bq                    0.31688  -4.83665   1. 
 Bq                    0.18872  -4.76898   1. 
 Bq                    0.06056  -4.70131   1. 
 Bq                   -0.0676   -4.63365   1. 
 Bq                   -0.19576  -4.56598   1. 
 Bq                   -0.32392  -4.49831   1. 
 Bq                   -0.45208  -4.43064   1. 
 Bq                   -0.58024  -4.36298   1. 
 Bq                   -0.7084   -4.29531   1. 
 Bq                   -0.83657  -4.22764   1. 
 Bq                   -0.96473  -4.15998   1. 
 Bq                   -1.09289  -4.09231   1. 
 Bq                   -1.22105  -4.02464   1. 
 Bq                   -1.34921  -3.95697   1. 
 Bq                   -1.47737  -3.88931   1. 
 Bq                   -1.60553  -3.82164   1. 
 Bq                   -1.73369  -3.75397   1. 
 Bq                   -1.86185  -3.68631   1. 
 Bq                   -1.99001  -3.61864   1. 
 Bq                   -2.11817  -3.55097   1. 
 Bq                   -2.24633  -3.4833    1. 
 Bq                   -2.37449  -3.41564   1. 
 Bq                   -2.50265  -3.34797   1. 
 Bq                   -2.63081  -3.2803    1. 
 Bq                   -2.75898  -3.21264   1. 
 Bq                   -2.88714  -3.14497   1. 
 Bq                   -3.0153   -3.0773    1. 
 Bq                   -3.14346  -3.00963   1. 
 Bq                   -3.27162  -2.94197   1. 
 Bq                   -3.39978  -2.8743    1. 
 Bq                   -3.52794  -2.80663   1. 
 Bq                   -3.6561   -2.73897   1. 
 Bq                   -3.78426  -2.6713    1. 
 Bq                   -3.91242  -2.60363   1. 
 Bq                   -4.04058  -2.53597   1. 
 Bq                   -4.16874  -2.4683    1. 
 Bq                   -4.2969   -2.40063   1. 
 Bq                   -4.42506  -2.33296   1. 
 Bq                   -4.55322  -2.2653    1. 
 Bq                   -4.68139  -2.19763   1. 
 Bq                   -4.80955  -2.12996   1. 
 Bq                   -4.93771  -2.0623    1. 
 Bq                   -5.06587  -1.99463   1. 
 Bq                   -5.19403  -1.92696   1. 
 Bq                   -5.32219  -1.85929   1. 
 Bq                   -5.45035  -1.79163   1. 
 Bq                   -5.57851  -1.72396   1. 
 Bq                   -5.70667  -1.65629   1. 
 Bq                   -5.83483  -1.58863   1. 
 Bq                   -5.96299  -1.52096   1. 
 Bq                   -6.09115  -1.45329   1. 
 Bq                   -6.21931  -1.38562   1. 
 Bq                   -6.34747  -1.31796   1. 
 Bq                    2.56328  -5.85883   1.00001 
 Bq                    2.43512  -5.79116   1.00001 
 Bq                    2.30696  -5.72349   1.00001 
 Bq                    2.1788   -5.65583   1.00001 
 Bq                    2.05064  -5.58816   1.00001 
 Bq                    1.92248  -5.52049   1.00001 
 Bq                    1.79432  -5.45282   1.00001 
 Bq                    1.66615  -5.38516   1.00001 
 Bq                    1.53799  -5.31749   1.00001 
 Bq                    1.40983  -5.24982   1.00001 
 Bq                    1.28167  -5.18216   1.00001 
 Bq                    1.15351  -5.11449   1.00001 
 Bq                    1.02535  -5.04682   1. 
 Bq                    0.89719  -4.97915   1. 
 Bq                    0.76903  -4.91149   1. 
 Bq                    0.64087  -4.84382   1. 
 Bq                    0.51271  -4.77615   1. 
 Bq                    0.38455  -4.70849   1. 
 Bq                    0.25639  -4.64082   1. 
 Bq                    0.12823  -4.57315   1. 
 Bq                    0.00007  -4.50548   1. 
 Bq                   -0.12809  -4.43782   1. 
 Bq                   -0.25626  -4.37015   1. 
 Bq                   -0.38442  -4.30248   1. 
 Bq                   -0.51258  -4.23482   1. 
 Bq                   -0.64074  -4.16715   1. 
 Bq                   -0.7689   -4.09948   1. 
 Bq                   -0.89706  -4.03181   1. 
 Bq                   -1.02522  -3.96415   1. 
 Bq                   -1.15338  -3.89648   1. 
 Bq                   -1.28154  -3.82881   1. 
 Bq                   -1.4097   -3.76115   1. 
 Bq                   -1.53786  -3.69348   1. 
 Bq                   -1.66602  -3.62581   1. 
 Bq                   -1.79418  -3.55815   1. 
 Bq                   -1.92234  -3.49048   1. 
 Bq                   -2.0505   -3.42281   1. 
 Bq                   -2.17867  -3.35514   1. 
 Bq                   -2.30683  -3.28748   1. 
 Bq                   -2.43499  -3.21981   1. 
 Bq                   -2.56315  -3.15214   1. 
 Bq                   -2.69131  -3.08448   1. 
 Bq                   -2.81947  -3.01681   1. 
 Bq                   -2.94763  -2.94914   1. 
 Bq                   -3.07579  -2.88147   1. 
 Bq                   -3.20395  -2.81381   1. 
 Bq                   -3.33211  -2.74614   1. 
 Bq                   -3.46027  -2.67847   1. 
 Bq                   -3.58843  -2.61081   1. 
 Bq                   -3.71659  -2.54314   1. 
 Bq                   -3.84475  -2.47547   1. 
 Bq                   -3.97291  -2.4078    1. 
 Bq                   -4.10108  -2.34014   1. 
 Bq                   -4.22924  -2.27247   1. 
 Bq                   -4.3574   -2.2048    1. 
 Bq                   -4.48556  -2.13714   1. 
 Bq                   -4.61372  -2.06947   1. 
 Bq                   -4.74188  -2.0018    1. 
 Bq                   -4.87004  -1.93414   1. 
 Bq                   -4.9982   -1.86647   1. 
 Bq                   -5.12636  -1.7988    1. 
 Bq                   -5.25452  -1.73113   1. 
 Bq                   -5.38268  -1.66347   1. 
 Bq                   -5.51084  -1.5958    1. 
 Bq                   -5.639    -1.52813   1. 
 Bq                   -5.76716  -1.46047   1. 
 Bq                   -5.89532  -1.3928    1. 
 Bq                   -6.02349  -1.32513   1. 
 Bq                   -6.15165  -1.25746   1. 
 Bq                   -6.27981  -1.1898    1. 
 Bq                    2.63095  -5.73067   1.00001 
 Bq                    2.50279  -5.663     1.00001 
 Bq                    2.37462  -5.59533   1.00001 
 Bq                    2.24646  -5.52766   1.00001 
 Bq                    2.1183   -5.46      1.00001 
 Bq                    1.99014  -5.39233   1.00001 
 Bq                    1.86198  -5.32466   1.00001 
 Bq                    1.73382  -5.257     1.00001 
 Bq                    1.60566  -5.18933   1.00001 
 Bq                    1.4775   -5.12166   1.00001 
 Bq                    1.34934  -5.05399   1.00001 
 Bq                    1.22118  -4.98633   1. 
 Bq                    1.09302  -4.91866   1. 
 Bq                    0.96486  -4.85099   1. 
 Bq                    0.8367   -4.78333   1. 
 Bq                    0.70854  -4.71566   1. 
 Bq                    0.58038  -4.64799   1. 
 Bq                    0.45221  -4.58033   1. 
 Bq                    0.32405  -4.51266   1. 
 Bq                    0.19589  -4.44499   1. 
 Bq                    0.06773  -4.37732   1. 
 Bq                   -0.06043  -4.30966   1. 
 Bq                   -0.18859  -4.24199   1. 
 Bq                   -0.31675  -4.17432   1. 
 Bq                   -0.44491  -4.10666   1. 
 Bq                   -0.57307  -4.03899   1. 
 Bq                   -0.70123  -3.97132   1. 
 Bq                   -0.82939  -3.90365   1. 
 Bq                   -0.95755  -3.83599   1. 
 Bq                   -1.08571  -3.76832   1. 
 Bq                   -1.21387  -3.70065   1. 
 Bq                   -1.34203  -3.63299   1. 
 Bq                   -1.4702   -3.56532   1. 
 Bq                   -1.59836  -3.49765   1. 
 Bq                   -1.72652  -3.42998   1. 
 Bq                   -1.85468  -3.36232   1. 
 Bq                   -1.98284  -3.29465   1. 
 Bq                   -2.111    -3.22698   1. 
 Bq                   -2.23916  -3.15932   1. 
 Bq                   -2.36732  -3.09165   1. 
 Bq                   -2.49548  -3.02398   1. 
 Bq                   -2.62364  -2.95631   1. 
 Bq                   -2.7518   -2.88865   1. 
 Bq                   -2.87996  -2.82098   1. 
 Bq                   -3.00812  -2.75331   1. 
 Bq                   -3.13628  -2.68565   1. 
 Bq                   -3.26444  -2.61798   1. 
 Bq                   -3.39261  -2.55031   1. 
 Bq                   -3.52077  -2.48265   1. 
 Bq                   -3.64893  -2.41498   1. 
 Bq                   -3.77709  -2.34731   1. 
 Bq                   -3.90525  -2.27964   1. 
 Bq                   -4.03341  -2.21198   1. 
 Bq                   -4.16157  -2.14431   1. 
 Bq                   -4.28973  -2.07664   1. 
 Bq                   -4.41789  -2.00898   1. 
 Bq                   -4.54605  -1.94131   1. 
 Bq                   -4.67421  -1.87364   1. 
 Bq                   -4.80237  -1.80597   1. 
 Bq                   -4.93053  -1.73831   1. 
 Bq                   -5.05869  -1.67064   1. 
 Bq                   -5.18685  -1.60297   1. 
 Bq                   -5.31501  -1.53531   1. 
 Bq                   -5.44318  -1.46764   1. 
 Bq                   -5.57134  -1.39997   1. 
 Bq                   -5.6995   -1.3323    1. 
 Bq                   -5.82766  -1.26464   1. 
 Bq                   -5.95582  -1.19697   1. 
 Bq                   -6.08398  -1.1293    1. 
 Bq                   -6.21214  -1.06164   1. 
 Bq                    2.69861  -5.6025    1.00001 
 Bq                    2.57045  -5.53484   1.00001 
 Bq                    2.44229  -5.46717   1.00001 
 Bq                    2.31413  -5.3995    1.00001 
 Bq                    2.18597  -5.33184   1.00001 
 Bq                    2.05781  -5.26417   1.00001 
 Bq                    1.92965  -5.1965    1.00001 
 Bq                    1.80149  -5.12884   1.00001 
 Bq                    1.67333  -5.06117   1.00001 
 Bq                    1.54517  -4.9935    1.00001 
 Bq                    1.41701  -4.92583   1. 
 Bq                    1.28885  -4.85817   1. 
 Bq                    1.16069  -4.7905    1. 
 Bq                    1.03252  -4.72283   1. 
 Bq                    0.90436  -4.65517   1. 
 Bq                    0.7762   -4.5875    1. 
 Bq                    0.64804  -4.51983   1. 
 Bq                    0.51988  -4.45216   1. 
 Bq                    0.39172  -4.3845    1. 
 Bq                    0.26356  -4.31683   1. 
 Bq                    0.1354   -4.24916   1. 
 Bq                    0.00724  -4.1815    1. 
 Bq                   -0.12092  -4.11383   1. 
 Bq                   -0.24908  -4.04616   1. 
 Bq                   -0.37724  -3.97849   1. 
 Bq                   -0.5054   -3.91083   1. 
 Bq                   -0.63356  -3.84316   1. 
 Bq                   -0.76172  -3.77549   1. 
 Bq                   -0.88989  -3.70783   1. 
 Bq                   -1.01805  -3.64016   1. 
 Bq                   -1.14621  -3.57249   1. 
 Bq                   -1.27437  -3.50483   1. 
 Bq                   -1.40253  -3.43716   1. 
 Bq                   -1.53069  -3.36949   1. 
 Bq                   -1.65885  -3.30182   1. 
 Bq                   -1.78701  -3.23416   1. 
 Bq                   -1.91517  -3.16649   1. 
 Bq                   -2.04333  -3.09882   1. 
 Bq                   -2.17149  -3.03116   1. 
 Bq                   -2.29965  -2.96349   1. 
 Bq                   -2.42781  -2.89582   1. 
 Bq                   -2.55597  -2.82815   1. 
 Bq                   -2.68413  -2.76049   1. 
 Bq                   -2.8123   -2.69282   1. 
 Bq                   -2.94046  -2.62515   1. 
 Bq                   -3.06862  -2.55749   1. 
 Bq                   -3.19678  -2.48982   1. 
 Bq                   -3.32494  -2.42215   1. 
 Bq                   -3.4531   -2.35448   1. 
 Bq                   -3.58126  -2.28682   1. 
 Bq                   -3.70942  -2.21915   1. 
 Bq                   -3.83758  -2.15148   1. 
 Bq                   -3.96574  -2.08382   1. 
 Bq                   -4.0939   -2.01615   1. 
 Bq                   -4.22206  -1.94848   1. 
 Bq                   -4.35022  -1.88081   1. 
 Bq                   -4.47838  -1.81315   1. 
 Bq                   -4.60654  -1.74548   1. 
 Bq                   -4.73471  -1.67781   1. 
 Bq                   -4.86287  -1.61015   1. 
 Bq                   -4.99103  -1.54248   1. 
 Bq                   -5.11919  -1.47481   1. 
 Bq                   -5.24735  -1.40715   1. 
 Bq                   -5.37551  -1.33948   1. 
 Bq                   -5.50367  -1.27181   1. 
 Bq                   -5.63183  -1.20414   1. 
 Bq                   -5.75999  -1.13648   1. 
 Bq                   -5.88815  -1.06881   1. 
 Bq                   -6.01631  -1.00114   1. 
 Bq                   -6.14447  -0.93348   1. 
 Bq                    2.76628  -5.47434   1.00001 
 Bq                    2.63812  -5.40668   1.00001 
 Bq                    2.50996  -5.33901   1.00001 
 Bq                    2.3818   -5.27134   1.00001 
 Bq                    2.25364  -5.20368   1.00001 
 Bq                    2.12548  -5.13601   1.00001 
 Bq                    1.99732  -5.06834   1.00001 
 Bq                    1.86916  -5.00067   1.00001 
 Bq                    1.741    -4.93301   1.00001 
 Bq                    1.61283  -4.86534   1. 
 Bq                    1.48467  -4.79767   1. 
 Bq                    1.35651  -4.73001   1. 
 Bq                    1.22835  -4.66234   1. 
 Bq                    1.10019  -4.59467   1. 
 Bq                    0.97203  -4.52701   1. 
 Bq                    0.84387  -4.45934   1. 
 Bq                    0.71571  -4.39167   1. 
 Bq                    0.58755  -4.324     1. 
 Bq                    0.45939  -4.25634   1. 
 Bq                    0.33123  -4.18867   1. 
 Bq                    0.20307  -4.121     1. 
 Bq                    0.07491  -4.05334   1. 
 Bq                   -0.05325  -3.98567   1. 
 Bq                   -0.18141  -3.918     1. 
 Bq                   -0.30958  -3.85033   1. 
 Bq                   -0.43774  -3.78267   1. 
 Bq                   -0.5659   -3.715     1. 
 Bq                   -0.69406  -3.64733   1. 
 Bq                   -0.82222  -3.57967   1. 
 Bq                   -0.95038  -3.512     1. 
 Bq                   -1.07854  -3.44433   1. 
 Bq                   -1.2067   -3.37666   1. 
 Bq                   -1.33486  -3.309     1. 
 Bq                   -1.46302  -3.24133   1. 
 Bq                   -1.59118  -3.17366   1. 
 Bq                   -1.71934  -3.106     1. 
 Bq                   -1.8475   -3.03833   1. 
 Bq                   -1.97566  -2.97066   1. 
 Bq                   -2.10382  -2.90299   1. 
 Bq                   -2.23199  -2.83533   1. 
 Bq                   -2.36015  -2.76766   1. 
 Bq                   -2.48831  -2.69999   1. 
 Bq                   -2.61647  -2.63233   1. 
 Bq                   -2.74463  -2.56466   1. 
 Bq                   -2.87279  -2.49699   1. 
 Bq                   -3.00095  -2.42933   1. 
 Bq                   -3.12911  -2.36166   1. 
 Bq                   -3.25727  -2.29399   1. 
 Bq                   -3.38543  -2.22632   1. 
 Bq                   -3.51359  -2.15866   1. 
 Bq                   -3.64175  -2.09099   1. 
 Bq                   -3.76991  -2.02332   1. 
 Bq                   -3.89807  -1.95566   1. 
 Bq                   -4.02623  -1.88799   1. 
 Bq                   -4.1544   -1.82032   1. 
 Bq                   -4.28256  -1.75265   1. 
 Bq                   -4.41072  -1.68499   1. 
 Bq                   -4.53888  -1.61732   1. 
 Bq                   -4.66704  -1.54965   1. 
 Bq                   -4.7952   -1.48199   1. 
 Bq                   -4.92336  -1.41432   1. 
 Bq                   -5.05152  -1.34665   1. 
 Bq                   -5.17968  -1.27898   1. 
 Bq                   -5.30784  -1.21132   1. 
 Bq                   -5.436    -1.14365   1. 
 Bq                   -5.56416  -1.07598   1. 
 Bq                   -5.69232  -1.00832   1. 
 Bq                   -5.82048  -0.94065   1. 
 Bq                   -5.94864  -0.87298   1. 
 Bq                   -6.07681  -0.80532   1. 
 Bq                    2.83395  -5.34618   1.00001 
 Bq                    2.70579  -5.27852   1.00001 
 Bq                    2.57763  -5.21085   1.00001 
 Bq                    2.44947  -5.14318   1.00001 
 Bq                    2.3213   -5.07552   1.00001 
 Bq                    2.19314  -5.00785   1.00001 
 Bq                    2.06498  -4.94018   1.00001 
 Bq                    1.93682  -4.87251   1.00001 
 Bq                    1.80866  -4.80485   1. 
 Bq                    1.6805   -4.73718   1. 
 Bq                    1.55234  -4.66951   1. 
 Bq                    1.42418  -4.60185   1. 
 Bq                    1.29602  -4.53418   1. 
 Bq                    1.16786  -4.46651   1. 
 Bq                    1.0397   -4.39884   1. 
 Bq                    0.91154  -4.33118   1. 
 Bq                    0.78338  -4.26351   1. 
 Bq                    0.65522  -4.19584   1. 
 Bq                    0.52706  -4.12818   1. 
 Bq                    0.39889  -4.06051   1. 
 Bq                    0.27073  -3.99284   1. 
 Bq                    0.14257  -3.92517   1. 
 Bq                    0.01441  -3.85751   1. 
 Bq                   -0.11375  -3.78984   1. 
 Bq                   -0.24191  -3.72217   1. 
 Bq                   -0.37007  -3.65451   1. 
 Bq                   -0.49823  -3.58684   1. 
 Bq                   -0.62639  -3.51917   1. 
 Bq                   -0.75455  -3.45151   1. 
 Bq                   -0.88271  -3.38384   1. 
 Bq                   -1.01087  -3.31617   1. 
 Bq                   -1.13903  -3.2485    1. 
 Bq                   -1.26719  -3.18084   1. 
 Bq                   -1.39535  -3.11317   1. 
 Bq                   -1.52352  -3.0455    1. 
 Bq                   -1.65168  -2.97784   1. 
 Bq                   -1.77984  -2.91017   1. 
 Bq                   -1.908    -2.8425    1. 
 Bq                   -2.03616  -2.77483   1. 
 Bq                   -2.16432  -2.70717   1. 
 Bq                   -2.29248  -2.6395    1. 
 Bq                   -2.42064  -2.57183   1. 
 Bq                   -2.5488   -2.50417   1. 
 Bq                   -2.67696  -2.4365    1. 
 Bq                   -2.80512  -2.36883   1. 
 Bq                   -2.93328  -2.30116   1. 
 Bq                   -3.06144  -2.2335    1. 
 Bq                   -3.1896   -2.16583   1. 
 Bq                   -3.31776  -2.09816   1. 
 Bq                   -3.44593  -2.0305    1. 
 Bq                   -3.57409  -1.96283   1. 
 Bq                   -3.70225  -1.89516   1. 
 Bq                   -3.83041  -1.82749   1. 
 Bq                   -3.95857  -1.75983   1. 
 Bq                   -4.08673  -1.69216   1. 
 Bq                   -4.21489  -1.62449   1. 
 Bq                   -4.34305  -1.55683   1. 
 Bq                   -4.47121  -1.48916   1. 
 Bq                   -4.59937  -1.42149   1. 
 Bq                   -4.72753  -1.35383   1. 
 Bq                   -4.85569  -1.28616   1. 
 Bq                   -4.98385  -1.21849   1. 
 Bq                   -5.11201  -1.15082   1. 
 Bq                   -5.24017  -1.08316   1. 
 Bq                   -5.36834  -1.01549   1. 
 Bq                   -5.4965   -0.94782   1. 
 Bq                   -5.62466  -0.88016   1. 
 Bq                   -5.75282  -0.81249   1. 
 Bq                   -5.88098  -0.74482   1. 
 Bq                   -6.00914  -0.67715   1. 
 Bq                    2.90161  -5.21802   1.00001 
 Bq                    2.77345  -5.15036   1.00001 
 Bq                    2.64529  -5.08269   1.00001 
 Bq                    2.51713  -5.01502   1.00001 
 Bq                    2.38897  -4.94735   1.00001 
 Bq                    2.26081  -4.87969   1.00001 
 Bq                    2.13265  -4.81202   1.00001 
 Bq                    2.00449  -4.74435   1. 
 Bq                    1.87633  -4.67669   1. 
 Bq                    1.74817  -4.60902   1. 
 Bq                    1.62001  -4.54135   1. 
 Bq                    1.49185  -4.47368   1. 
 Bq                    1.36369  -4.40602   1. 
 Bq                    1.23553  -4.33835   1. 
 Bq                    1.10737  -4.27068   1. 
 Bq                    0.9792   -4.20302   1. 
 Bq                    0.85104  -4.13535   1. 
 Bq                    0.72288  -4.06768   1. 
 Bq                    0.59472  -4.00002   1. 
 Bq                    0.46656  -3.93235   1. 
 Bq                    0.3384   -3.86468   1. 
 Bq                    0.21024  -3.79701   1. 
 Bq                    0.08208  -3.72935   1. 
 Bq                   -0.04608  -3.66168   1. 
 Bq                   -0.17424  -3.59401   1. 
 Bq                   -0.3024   -3.52635   1. 
 Bq                   -0.43056  -3.45868   1. 
 Bq                   -0.55872  -3.39101   1. 
 Bq                   -0.68688  -3.32334   1. 
 Bq                   -0.81504  -3.25568   1. 
 Bq                   -0.94321  -3.18801   1. 
 Bq                   -1.07137  -3.12034   1. 
 Bq                   -1.19953  -3.05268   1. 
 Bq                   -1.32769  -2.98501   1. 
 Bq                   -1.45585  -2.91734   1. 
 Bq                   -1.58401  -2.84967   1. 
 Bq                   -1.71217  -2.78201   1. 
 Bq                   -1.84033  -2.71434   1. 
 Bq                   -1.96849  -2.64667   1. 
 Bq                   -2.09665  -2.57901   1. 
 Bq                   -2.22481  -2.51134   1. 
 Bq                   -2.35297  -2.44367   1. 
 Bq                   -2.48113  -2.37601   1. 
 Bq                   -2.60929  -2.30834   1. 
 Bq                   -2.73745  -2.24067   1. 
 Bq                   -2.86562  -2.173     1. 
 Bq                   -2.99378  -2.10534   1. 
 Bq                   -3.12194  -2.03767   1. 
 Bq                   -3.2501   -1.97      1. 
 Bq                   -3.37826  -1.90234   1. 
 Bq                   -3.50642  -1.83467   1. 
 Bq                   -3.63458  -1.767     1. 
 Bq                   -3.76274  -1.69933   1. 
 Bq                   -3.8909   -1.63167   1. 
 Bq                   -4.01906  -1.564     1. 
 Bq                   -4.14722  -1.49633   1. 
 Bq                   -4.27538  -1.42867   1. 
 Bq                   -4.40354  -1.361     1. 
 Bq                   -4.5317   -1.29333   1. 
 Bq                   -4.65986  -1.22566   1. 
 Bq                   -4.78803  -1.158     1. 
 Bq                   -4.91619  -1.09033   1. 
 Bq                   -5.04435  -1.02266   1. 
 Bq                   -5.17251  -0.955     1. 
 Bq                   -5.30067  -0.88733   1. 
 Bq                   -5.42883  -0.81966   1. 
 Bq                   -5.55699  -0.752     1. 
 Bq                   -5.68515  -0.68433   1. 
 Bq                   -5.81331  -0.61666   1. 
 Bq                   -5.94147  -0.54899   1. 
 Bq                    2.96928  -5.08986   1.00001 
 Bq                    2.84112  -5.0222    1.00001 
 Bq                    2.71296  -4.95453   1.00001 
 Bq                    2.5848   -4.88686   1.00001 
 Bq                    2.45664  -4.81919   1.00001 
 Bq                    2.32848  -4.75153   1.00001 
 Bq                    2.20032  -4.68386   1. 
 Bq                    2.07216  -4.61619   1. 
 Bq                    1.944    -4.54853   1. 
 Bq                    1.81584  -4.48086   1. 
 Bq                    1.68767  -4.41319   1. 
 Bq                    1.55951  -4.34552   1. 
 Bq                    1.43135  -4.27786   1. 
 Bq                    1.30319  -4.21019   1. 
 Bq                    1.17503  -4.14252   1. 
 Bq                    1.04687  -4.07486   1. 
 Bq                    0.91871  -4.00719   1. 
 Bq                    0.79055  -3.93952   1. 
 Bq                    0.66239  -3.87185   1. 
 Bq                    0.53423  -3.80419   1. 
 Bq                    0.40607  -3.73652   1. 
 Bq                    0.27791  -3.66885   1. 
 Bq                    0.14975  -3.60119   1. 
 Bq                    0.02159  -3.53352   1. 
 Bq                   -0.10657  -3.46585   1. 
 Bq                   -0.23473  -3.39819   1. 
 Bq                   -0.3629   -3.33052   1. 
 Bq                   -0.49106  -3.26285   1. 
 Bq                   -0.61922  -3.19518   1. 
 Bq                   -0.74738  -3.12752   1. 
 Bq                   -0.87554  -3.05985   1. 
 Bq                   -1.0037   -2.99218   1. 
 Bq                   -1.13186  -2.92452   1. 
 Bq                   -1.26002  -2.85685   1. 
 Bq                   -1.38818  -2.78918   1. 
 Bq                   -1.51634  -2.72151   1. 
 Bq                   -1.6445   -2.65385   1. 
 Bq                   -1.77266  -2.58618   1. 
 Bq                   -1.90082  -2.51851   1. 
 Bq                   -2.02898  -2.45085   1. 
 Bq                   -2.15714  -2.38318   1. 
 Bq                   -2.28531  -2.31551   1. 
 Bq                   -2.41347  -2.24784   1. 
 Bq                   -2.54163  -2.18018   1. 
 Bq                   -2.66979  -2.11251   1. 
 Bq                   -2.79795  -2.04484   1. 
 Bq                   -2.92611  -1.97718   1. 
 Bq                   -3.05427  -1.90951   1. 
 Bq                   -3.18243  -1.84184   1. 
 Bq                   -3.31059  -1.77417   1. 
 Bq                   -3.43875  -1.70651   1. 
 Bq                   -3.56691  -1.63884   1. 
 Bq                   -3.69507  -1.57117   1. 
 Bq                   -3.82323  -1.50351   1. 
 Bq                   -3.95139  -1.43584   1. 
 Bq                   -4.07955  -1.36817   1. 
 Bq                   -4.20772  -1.30051   1. 
 Bq                   -4.33588  -1.23284   1. 
 Bq                   -4.46404  -1.16517   1. 
 Bq                   -4.5922   -1.0975    1. 
 Bq                   -4.72036  -1.02984   1. 
 Bq                   -4.84852  -0.96217   1. 
 Bq                   -4.97668  -0.8945    1. 
 Bq                   -5.10484  -0.82684   1. 
 Bq                   -5.233    -0.75917   1. 
 Bq                   -5.36116  -0.6915    1. 
 Bq                   -5.48932  -0.62383   1. 
 Bq                   -5.61748  -0.55617   1. 
 Bq                   -5.74564  -0.4885    1. 
 Bq                   -5.8738   -0.42083   1. 
 Bq                    3.03695  -4.9617    1.00001 
 Bq                    2.90879  -4.89403   1.00001 
 Bq                    2.78063  -4.82637   1.00001 
 Bq                    2.65247  -4.7587    1.00001 
 Bq                    2.52431  -4.69103   1.00001 
 Bq                    2.39615  -4.62337   1. 
 Bq                    2.26798  -4.5557    1. 
 Bq                    2.13982  -4.48803   1. 
 Bq                    2.01166  -4.42036   1. 
 Bq                    1.8835   -4.3527    1. 
 Bq                    1.75534  -4.28503   1. 
 Bq                    1.62718  -4.21736   1. 
 Bq                    1.49902  -4.1497    1. 
 Bq                    1.37086  -4.08203   1. 
 Bq                    1.2427   -4.01436   1. 
 Bq                    1.11454  -3.9467    1. 
 Bq                    0.98638  -3.87903   1. 
 Bq                    0.85822  -3.81136   1. 
 Bq                    0.73006  -3.74369   1. 
 Bq                    0.6019   -3.67603   1. 
 Bq                    0.47374  -3.60836   1. 
 Bq                    0.34557  -3.54069   1. 
 Bq                    0.21741  -3.47303   1. 
 Bq                    0.08925  -3.40536   1. 
 Bq                   -0.03891  -3.33769   1. 
 Bq                   -0.16707  -3.27002   1. 
 Bq                   -0.29523  -3.20236   1. 
 Bq                   -0.42339  -3.13469   1. 
 Bq                   -0.55155  -3.06702   1. 
 Bq                   -0.67971  -2.99936   1. 
 Bq                   -0.80787  -2.93169   1. 
 Bq                   -0.93603  -2.86402   1. 
 Bq                   -1.06419  -2.79635   1. 
 Bq                   -1.19235  -2.72869   1. 
 Bq                   -1.32051  -2.66102   1. 
 Bq                   -1.44867  -2.59335   1. 
 Bq                   -1.57684  -2.52569   1. 
 Bq                   -1.705    -2.45802   1. 
 Bq                   -1.83316  -2.39035   1. 
 Bq                   -1.96132  -2.32269   1. 
 Bq                   -2.08948  -2.25502   1. 
 Bq                   -2.21764  -2.18735   1. 
 Bq                   -2.3458   -2.11968   1. 
 Bq                   -2.47396  -2.05202   1. 
 Bq                   -2.60212  -1.98435   1. 
 Bq                   -2.73028  -1.91668   1. 
 Bq                   -2.85844  -1.84902   1. 
 Bq                   -2.9866   -1.78135   1. 
 Bq                   -3.11476  -1.71368   1. 
 Bq                   -3.24292  -1.64601   1. 
 Bq                   -3.37108  -1.57835   1. 
 Bq                   -3.49925  -1.51068   1. 
 Bq                   -3.62741  -1.44301   1. 
 Bq                   -3.75557  -1.37535   1. 
 Bq                   -3.88373  -1.30768   1. 
 Bq                   -4.01189  -1.24001   1. 
 Bq                   -4.14005  -1.17234   1. 
 Bq                   -4.26821  -1.10468   1. 
 Bq                   -4.39637  -1.03701   1. 
 Bq                   -4.52453  -0.96934   1. 
 Bq                   -4.65269  -0.90168   1. 
 Bq                   -4.78085  -0.83401   1. 
 Bq                   -4.90901  -0.76634   1. 
 Bq                   -5.03717  -0.69867   1. 
 Bq                   -5.16533  -0.63101   1. 
 Bq                   -5.29349  -0.56334   1. 
 Bq                   -5.42166  -0.49567   1. 
 Bq                   -5.54982  -0.42801   1. 
 Bq                   -5.67798  -0.36034   1. 
 Bq                   -5.80614  -0.29267   1. 
 Bq                    3.10462  -4.83354   1.00001 
 Bq                    2.97646  -4.76587   1.00001 
 Bq                    2.84829  -4.69821   1.00001 
 Bq                    2.72013  -4.63054   1.00001 
 Bq                    2.59197  -4.56287   1. 
 Bq                    2.46381  -4.49521   1. 
 Bq                    2.33565  -4.42754   1. 
 Bq                    2.20749  -4.35987   1. 
 Bq                    2.07933  -4.2922    1. 
 Bq                    1.95117  -4.22454   1. 
 Bq                    1.82301  -4.15687   1. 
 Bq                    1.69485  -4.0892    1. 
 Bq                    1.56669  -4.02154   1. 
 Bq                    1.43853  -3.95387   1. 
 Bq                    1.31037  -3.8862    1. 
 Bq                    1.18221  -3.81853   1. 
 Bq                    1.05405  -3.75087   1. 
 Bq                    0.92588  -3.6832    1. 
 Bq                    0.79772  -3.61553   1. 
 Bq                    0.66956  -3.54787   1. 
 Bq                    0.5414   -3.4802    1. 
 Bq                    0.41324  -3.41253   1. 
 Bq                    0.28508  -3.34486   1. 
 Bq                    0.15692  -3.2772    1. 
 Bq                    0.02876  -3.20953   1. 
 Bq                   -0.0994   -3.14186   1. 
 Bq                   -0.22756  -3.0742    1. 
 Bq                   -0.35572  -3.00653   1. 
 Bq                   -0.48388  -2.93886   1. 
 Bq                   -0.61204  -2.8712    1. 
 Bq                   -0.7402   -2.80353   1. 
 Bq                   -0.86836  -2.73586   1. 
 Bq                   -0.99653  -2.66819   1. 
 Bq                   -1.12469  -2.60053   1. 
 Bq                   -1.25285  -2.53286   1. 
 Bq                   -1.38101  -2.46519   1. 
 Bq                   -1.50917  -2.39753   1. 
 Bq                   -1.63733  -2.32986   1. 
 Bq                   -1.76549  -2.26219   1. 
 Bq                   -1.89365  -2.19452   1. 
 Bq                   -2.02181  -2.12686   1. 
 Bq                   -2.14997  -2.05919   1. 
 Bq                   -2.27813  -1.99152   1. 
 Bq                   -2.40629  -1.92386   1. 
 Bq                   -2.53445  -1.85619   1. 
 Bq                   -2.66261  -1.78852   1. 
 Bq                   -2.79077  -1.72085   1. 
 Bq                   -2.91894  -1.65319   1. 
 Bq                   -3.0471   -1.58552   1. 
 Bq                   -3.17526  -1.51785   1. 
 Bq                   -3.30342  -1.45019   1. 
 Bq                   -3.43158  -1.38252   1. 
 Bq                   -3.55974  -1.31485   1. 
 Bq                   -3.6879   -1.24719   1. 
 Bq                   -3.81606  -1.17952   1. 
 Bq                   -3.94422  -1.11185   1. 
 Bq                   -4.07238  -1.04418   1. 
 Bq                   -4.20054  -0.97652   1. 
 Bq                   -4.3287   -0.90885   1. 
 Bq                   -4.45686  -0.84118   1. 
 Bq                   -4.58502  -0.77352   1. 
 Bq                   -4.71318  -0.70585   1. 
 Bq                   -4.84135  -0.63818   1. 
 Bq                   -4.96951  -0.57051   1. 
 Bq                   -5.09767  -0.50285   1. 
 Bq                   -5.22583  -0.43518   1. 
 Bq                   -5.35399  -0.36751   1. 
 Bq                   -5.48215  -0.29985   1. 
 Bq                   -5.61031  -0.23218   1. 
 Bq                   -5.73847  -0.16451   1. 
 Bq                    3.17228  -4.70538   1.00001 
 Bq                    3.04412  -4.63771   1.00001 
 Bq                    2.91596  -4.57005   1.00001 
 Bq                    2.7878   -4.50238   1. 
 Bq                    2.65964  -4.43471   1. 
 Bq                    2.53148  -4.36704   1. 
 Bq                    2.40332  -4.29938   1. 
 Bq                    2.27516  -4.23171   1. 
 Bq                    2.147    -4.16404   1. 
 Bq                    2.01884  -4.09638   1. 
 Bq                    1.89068  -4.02871   1. 
 Bq                    1.76252  -3.96104   1. 
 Bq                    1.63435  -3.89338   1. 
 Bq                    1.50619  -3.82571   1. 
 Bq                    1.37803  -3.75804   1. 
 Bq                    1.24987  -3.69037   1. 
 Bq                    1.12171  -3.62271   1. 
 Bq                    0.99355  -3.55504   1. 
 Bq                    0.86539  -3.48737   1. 
 Bq                    0.73723  -3.41971   1. 
 Bq                    0.60907  -3.35204   1. 
 Bq                    0.48091  -3.28437   1. 
 Bq                    0.35275  -3.2167    1. 
 Bq                    0.22459  -3.14904   1. 
 Bq                    0.09643  -3.08137   1. 
 Bq                   -0.03173  -3.0137    1. 
 Bq                   -0.15989  -2.94604   1. 
 Bq                   -0.28806  -2.87837   1. 
 Bq                   -0.41622  -2.8107    1. 
 Bq                   -0.54438  -2.74303   1. 
 Bq                   -0.67254  -2.67537   1. 
 Bq                   -0.8007   -2.6077    1. 
 Bq                   -0.92886  -2.54003   1. 
 Bq                   -1.05702  -2.47237   1. 
 Bq                   -1.18518  -2.4047    1. 
 Bq                   -1.31334  -2.33703   1. 
 Bq                   -1.4415   -2.26937   1. 
 Bq                   -1.56966  -2.2017    1. 
 Bq                   -1.69782  -2.13403   1. 
 Bq                   -1.82598  -2.06636   1. 
 Bq                   -1.95414  -1.9987    1. 
 Bq                   -2.0823   -1.93103   1. 
 Bq                   -2.21046  -1.86336   1. 
 Bq                   -2.33863  -1.7957    1. 
 Bq                   -2.46679  -1.72803   1. 
 Bq                   -2.59495  -1.66036   1. 
 Bq                   -2.72311  -1.59269   1. 
 Bq                   -2.85127  -1.52503   1. 
 Bq                   -2.97943  -1.45736   1. 
 Bq                   -3.10759  -1.38969   1. 
 Bq                   -3.23575  -1.32203   1. 
 Bq                   -3.36391  -1.25436   1. 
 Bq                   -3.49207  -1.18669   1. 
 Bq                   -3.62023  -1.11902   1. 
 Bq                   -3.74839  -1.05136   1. 
 Bq                   -3.87655  -0.98369   1. 
 Bq                   -4.00471  -0.91602   1. 
 Bq                   -4.13287  -0.84836   1. 
 Bq                   -4.26104  -0.78069   1. 
 Bq                   -4.3892   -0.71302   1. 
 Bq                   -4.51736  -0.64535   1. 
 Bq                   -4.64552  -0.57769   1. 
 Bq                   -4.77368  -0.51002   1. 
 Bq                   -4.90184  -0.44235   1. 
 Bq                   -5.03     -0.37469   1. 
 Bq                   -5.15816  -0.30702   1. 
 Bq                   -5.28632  -0.23935   1. 
 Bq                   -5.41448  -0.17169   1. 
 Bq                   -5.54264  -0.10402   1. 
 Bq                   -5.6708   -0.03635   1. 
 Bq                    3.23995  -4.57722   1.00001 
 Bq                    3.11179  -4.50955   1.00001 
 Bq                    2.98363  -4.44189   1. 
 Bq                    2.85547  -4.37422   1. 
 Bq                    2.72731  -4.30655   1. 
 Bq                    2.59915  -4.23888   1. 
 Bq                    2.47099  -4.17122   1. 
 Bq                    2.34283  -4.10355   1. 
 Bq                    2.21466  -4.03588   1. 
 Bq                    2.0865   -3.96822   1. 
 Bq                    1.95834  -3.90055   1. 
 Bq                    1.83018  -3.83288   1. 
 Bq                    1.70202  -3.76521   1. 
 Bq                    1.57386  -3.69755   1. 
 Bq                    1.4457   -3.62988   1. 
 Bq                    1.31754  -3.56221   1. 
 Bq                    1.18938  -3.49455   1. 
 Bq                    1.06122  -3.42688   1. 
 Bq                    0.93306  -3.35921   1. 
 Bq                    0.8049   -3.29154   1. 
 Bq                    0.67674  -3.22388   1. 
 Bq                    0.54858  -3.15621   1. 
 Bq                    0.42042  -3.08854   1. 
 Bq                    0.29225  -3.02088   1. 
 Bq                    0.16409  -2.95321   1. 
 Bq                    0.03593  -2.88554   1. 
 Bq                   -0.09223  -2.81788   1. 
 Bq                   -0.22039  -2.75021   1. 
 Bq                   -0.34855  -2.68254   1. 
 Bq                   -0.47671  -2.61487   1. 
 Bq                   -0.60487  -2.54721   1. 
 Bq                   -0.73303  -2.47954   1. 
 Bq                   -0.86119  -2.41187   1. 
 Bq                   -0.98935  -2.34421   1. 
 Bq                   -1.11751  -2.27654   1. 
 Bq                   -1.24567  -2.20887   1. 
 Bq                   -1.37383  -2.1412    1. 
 Bq                   -1.50199  -2.07354   1. 
 Bq                   -1.63016  -2.00587   1. 
 Bq                   -1.75832  -1.9382    1. 
 Bq                   -1.88648  -1.87054   1. 
 Bq                   -2.01464  -1.80287   1. 
 Bq                   -2.1428   -1.7352    1. 
 Bq                   -2.27096  -1.66753   1. 
 Bq                   -2.39912  -1.59987   1. 
 Bq                   -2.52728  -1.5322    1. 
 Bq                   -2.65544  -1.46453   1. 
 Bq                   -2.7836   -1.39687   1. 
 Bq                   -2.91176  -1.3292    1. 
 Bq                   -3.03992  -1.26153   1. 
 Bq                   -3.16808  -1.19387   1. 
 Bq                   -3.29624  -1.1262    1. 
 Bq                   -3.4244   -1.05853   1. 
 Bq                   -3.55257  -0.99086   1. 
 Bq                   -3.68073  -0.9232    1. 
 Bq                   -3.80889  -0.85553   1. 
 Bq                   -3.93705  -0.78786   1. 
 Bq                   -4.06521  -0.7202    1. 
 Bq                   -4.19337  -0.65253   1. 
 Bq                   -4.32153  -0.58486   1. 
 Bq                   -4.44969  -0.51719   1. 
 Bq                   -4.57785  -0.44953   1. 
 Bq                   -4.70601  -0.38186   1. 
 Bq                   -4.83417  -0.31419   1. 
 Bq                   -4.96233  -0.24653   1. 
 Bq                   -5.09049  -0.17886   1. 
 Bq                   -5.21865  -0.11119   1. 
 Bq                   -5.34681  -0.04352   1. 
 Bq                   -5.47498   0.02414   1. 
 Bq                   -5.60314   0.09181   1. 
 Bq                    3.30762  -4.44906   1.00001 
 Bq                    3.17946  -4.38139   1. 
 Bq                    3.0513   -4.31372   1. 
 Bq                    2.92314  -4.24606   1. 
 Bq                    2.79497  -4.17839   1. 
 Bq                    2.66681  -4.11072   1. 
 Bq                    2.53865  -4.04306   1. 
 Bq                    2.41049  -3.97539   1. 
 Bq                    2.28233  -3.90772   1. 
 Bq                    2.15417  -3.84006   1. 
 Bq                    2.02601  -3.77239   1. 
 Bq                    1.89785  -3.70472   1. 
 Bq                    1.76969  -3.63705   1. 
 Bq                    1.64153  -3.56939   1. 
 Bq                    1.51337  -3.50172   1. 
 Bq                    1.38521  -3.43405   1. 
 Bq                    1.25705  -3.36639   1. 
 Bq                    1.12889  -3.29872   1. 
 Bq                    1.00073  -3.23105   1. 
 Bq                    0.87256  -3.16338   1. 
 Bq                    0.7444   -3.09572   1. 
 Bq                    0.61624  -3.02805   1. 
 Bq                    0.48808  -2.96038   1. 
 Bq                    0.35992  -2.89272   1. 
 Bq                    0.23176  -2.82505   1. 
 Bq                    0.1036   -2.75738   1. 
 Bq                   -0.02456  -2.68971   1. 
 Bq                   -0.15272  -2.62205   1. 
 Bq                   -0.28088  -2.55438   1. 
 Bq                   -0.40904  -2.48671   1. 
 Bq                   -0.5372   -2.41905   1. 
 Bq                   -0.66536  -2.35138   1. 
 Bq                   -0.79352  -2.28371   1. 
 Bq                   -0.92168  -2.21605   1. 
 Bq                   -1.04985  -2.14838   1. 
 Bq                   -1.17801  -2.08071   1. 
 Bq                   -1.30617  -2.01304   1. 
 Bq                   -1.43433  -1.94538   1. 
 Bq                   -1.56249  -1.87771   1. 
 Bq                   -1.69065  -1.81004   1. 
 Bq                   -1.81881  -1.74238   1. 
 Bq                   -1.94697  -1.67471   1. 
 Bq                   -2.07513  -1.60704   1. 
 Bq                   -2.20329  -1.53937   1. 
 Bq                   -2.33145  -1.47171   1. 
 Bq                   -2.45961  -1.40404   1. 
 Bq                   -2.58777  -1.33637   1. 
 Bq                   -2.71593  -1.26871   1. 
 Bq                   -2.84409  -1.20104   1. 
 Bq                   -2.97226  -1.13337   1. 
 Bq                   -3.10042  -1.0657    1. 
 Bq                   -3.22858  -0.99804   1. 
 Bq                   -3.35674  -0.93037   1. 
 Bq                   -3.4849   -0.8627    1. 
 Bq                   -3.61306  -0.79504   1. 
 Bq                   -3.74122  -0.72737   1. 
 Bq                   -3.86938  -0.6597    1. 
 Bq                   -3.99754  -0.59203   1. 
 Bq                   -4.1257   -0.52437   1. 
 Bq                   -4.25386  -0.4567    1. 
 Bq                   -4.38202  -0.38903   1. 
 Bq                   -4.51018  -0.32137   1. 
 Bq                   -4.63834  -0.2537    1. 
 Bq                   -4.7665   -0.18603   1. 
 Bq                   -4.89467  -0.11837   1. 
 Bq                   -5.02283  -0.0507    1. 
 Bq                   -5.15099   0.01697   1. 
 Bq                   -5.27915   0.08464   1. 
 Bq                   -5.40731   0.1523    1. 
 Bq                   -5.53547   0.21997   1. 
 Bq                    3.37528  -4.3209    1. 
 Bq                    3.24712  -4.25323   1. 
 Bq                    3.11896  -4.18556   1. 
 Bq                    2.9908   -4.1179    1. 
 Bq                    2.86264  -4.05023   1. 
 Bq                    2.73448  -3.98256   1. 
 Bq                    2.60632  -3.9149    1. 
 Bq                    2.47816  -3.84723   1. 
 Bq                    2.35     -3.77956   1. 
 Bq                    2.22184  -3.71189   1. 
 Bq                    2.09368  -3.64423   1. 
 Bq                    1.96552  -3.57656   1. 
 Bq                    1.83736  -3.50889   1. 
 Bq                    1.7092   -3.44123   1. 
 Bq                    1.58103  -3.37356   1. 
 Bq                    1.45287  -3.30589   1. 
 Bq                    1.32471  -3.23822   1. 
 Bq                    1.19655  -3.17056   1. 
 Bq                    1.06839  -3.10289   1. 
 Bq                    0.94023  -3.03522   1. 
 Bq                    0.81207  -2.96756   1. 
 Bq                    0.68391  -2.89989   1. 
 Bq                    0.55575  -2.83222   1. 
 Bq                    0.42759  -2.76456   1. 
 Bq                    0.29943  -2.69689   1. 
 Bq                    0.17127  -2.62922   1. 
 Bq                    0.04311  -2.56155   1. 
 Bq                   -0.08505  -2.49389   1. 
 Bq                   -0.21321  -2.42622   1. 
 Bq                   -0.34138  -2.35855   1. 
 Bq                   -0.46954  -2.29089   1. 
 Bq                   -0.5977   -2.22322   1. 
 Bq                   -0.72586  -2.15555   1. 
 Bq                   -0.85402  -2.08788   1. 
 Bq                   -0.98218  -2.02022   1. 
 Bq                   -1.11034  -1.95255   1. 
 Bq                   -1.2385   -1.88488   1. 
 Bq                   -1.36666  -1.81722   1. 
 Bq                   -1.49482  -1.74955   1. 
 Bq                   -1.62298  -1.68188   1. 
 Bq                   -1.75114  -1.61421   1. 
 Bq                   -1.8793   -1.54655   1. 
 Bq                   -2.00746  -1.47888   1. 
 Bq                   -2.13562  -1.41121   1. 
 Bq                   -2.26379  -1.34355   1. 
 Bq                   -2.39195  -1.27588   1. 
 Bq                   -2.52011  -1.20821   1. 
 Bq                   -2.64827  -1.14055   1. 
 Bq                   -2.77643  -1.07288   1. 
 Bq                   -2.90459  -1.00521   1. 
 Bq                   -3.03275  -0.93754   1. 
 Bq                   -3.16091  -0.86988   1. 
 Bq                   -3.28907  -0.80221   1. 
 Bq                   -3.41723  -0.73454   1. 
 Bq                   -3.54539  -0.66688   1. 
 Bq                   -3.67355  -0.59921   1. 
 Bq                   -3.80171  -0.53154   1. 
 Bq                   -3.92987  -0.46387   1. 
 Bq                   -4.05803  -0.39621   1. 
 Bq                   -4.18619  -0.32854   1. 
 Bq                   -4.31436  -0.26087   1. 
 Bq                   -4.44252  -0.19321   1. 
 Bq                   -4.57068  -0.12554   1. 
 Bq                   -4.69884  -0.05787   1. 
 Bq                   -4.827     0.0098    1. 
 Bq                   -4.95516   0.07746   1. 
 Bq                   -5.08332   0.14513   1. 
 Bq                   -5.21148   0.2128    1. 
 Bq                   -5.33964   0.28046   1. 
 Bq                   -5.4678    0.34813   1. 
 Bq                    3.44295  -4.19274   1. 
 Bq                    3.31479  -4.12507   1. 
 Bq                    3.18663  -4.0574    1. 
 Bq                    3.05847  -3.98974   1. 
 Bq                    2.93031  -3.92207   1. 
 Bq                    2.80215  -3.8544    1. 
 Bq                    2.67399  -3.78674   1. 
 Bq                    2.54583  -3.71907   1. 
 Bq                    2.41767  -3.6514    1. 
 Bq                    2.28951  -3.58373   1. 
 Bq                    2.16134  -3.51607   1. 
 Bq                    2.03318  -3.4484    1. 
 Bq                    1.90502  -3.38073   1. 
 Bq                    1.77686  -3.31307   1. 
 Bq                    1.6487   -3.2454    1. 
 Bq                    1.52054  -3.17773   1. 
 Bq                    1.39238  -3.11006   1. 
 Bq                    1.26422  -3.0424    1. 
 Bq                    1.13606  -2.97473   1. 
 Bq                    1.0079   -2.90706   1. 
 Bq                    0.87974  -2.8394    1. 
 Bq                    0.75158  -2.77173   1. 
 Bq                    0.62342  -2.70406   1. 
 Bq                    0.49526  -2.63639   1. 
 Bq                    0.3671   -2.56873   1. 
 Bq                    0.23893  -2.50106   1. 
 Bq                    0.11077  -2.43339   1. 
 Bq                   -0.01739  -2.36573   1. 
 Bq                   -0.14555  -2.29806   1. 
 Bq                   -0.27371  -2.23039   1. 
 Bq                   -0.40187  -2.16272   1. 
 Bq                   -0.53003  -2.09506   1. 
 Bq                   -0.65819  -2.02739   1. 
 Bq                   -0.78635  -1.95972   1. 
 Bq                   -0.91451  -1.89206   1. 
 Bq                   -1.04267  -1.82439   1. 
 Bq                   -1.17083  -1.75672   1. 
 Bq                   -1.29899  -1.68906   1. 
 Bq                   -1.42715  -1.62139   1. 
 Bq                   -1.55531  -1.55372   1. 
 Bq                   -1.68348  -1.48605   1. 
 Bq                   -1.81164  -1.41839   1. 
 Bq                   -1.9398   -1.35072   1. 
 Bq                   -2.06796  -1.28305   1. 
 Bq                   -2.19612  -1.21539   1. 
 Bq                   -2.32428  -1.14772   1. 
 Bq                   -2.45244  -1.08005   1. 
 Bq                   -2.5806   -1.01238   1. 
 Bq                   -2.70876  -0.94472   1. 
 Bq                   -2.83692  -0.87705   1. 
 Bq                   -2.96508  -0.80938   1. 
 Bq                   -3.09324  -0.74172   1. 
 Bq                   -3.2214   -0.67405   1. 
 Bq                   -3.34956  -0.60638   1. 
 Bq                   -3.47772  -0.53871   1. 
 Bq                   -3.60589  -0.47105   1. 
 Bq                   -3.73405  -0.40338   1. 
 Bq                   -3.86221  -0.33571   1. 
 Bq                   -3.99037  -0.26805   1. 
 Bq                   -4.11853  -0.20038   1. 
 Bq                   -4.24669  -0.13271   1. 
 Bq                   -4.37485  -0.06505   1. 
 Bq                   -4.50301   0.00262   1. 
 Bq                   -4.63117   0.07029   1. 
 Bq                   -4.75933   0.13796   1. 
 Bq                   -4.88749   0.20562   1. 
 Bq                   -5.01565   0.27329   1. 
 Bq                   -5.14381   0.34096   1. 
 Bq                   -5.27197   0.40862   1. 
 Bq                   -5.40013   0.47629   1. 
 Bq                    3.51062  -4.06458   1. 
 Bq                    3.38246  -3.99691   1. 
 Bq                    3.2543   -3.92924   1. 
 Bq                    3.12614  -3.86158   1. 
 Bq                    2.99798  -3.79391   1. 
 Bq                    2.86982  -3.72624   1. 
 Bq                    2.74165  -3.65857   1. 
 Bq                    2.61349  -3.59091   1. 
 Bq                    2.48533  -3.52324   1. 
 Bq                    2.35717  -3.45557   1. 
 Bq                    2.22901  -3.38791   1. 
 Bq                    2.10085  -3.32024   1. 
 Bq                    1.97269  -3.25257   1. 
 Bq                    1.84453  -3.1849    1. 
 Bq                    1.71637  -3.11724   1. 
 Bq                    1.58821  -3.04957   1. 
 Bq                    1.46005  -2.9819    1. 
 Bq                    1.33189  -2.91424   1. 
 Bq                    1.20373  -2.84657   1. 
 Bq                    1.07557  -2.7789    1. 
 Bq                    0.94741  -2.71124   1. 
 Bq                    0.81924  -2.64357   1. 
 Bq                    0.69108  -2.5759    1. 
 Bq                    0.56292  -2.50823   1. 
 Bq                    0.43476  -2.44057   1. 
 Bq                    0.3066   -2.3729    1. 
 Bq                    0.17844  -2.30523   1. 
 Bq                    0.05028  -2.23757   1. 
 Bq                   -0.07788  -2.1699    1. 
 Bq                   -0.20604  -2.10223   1. 
 Bq                   -0.3342   -2.03456   1. 
 Bq                   -0.46236  -1.9669    1. 
 Bq                   -0.59052  -1.89923   1. 
 Bq                   -0.71868  -1.83156   1. 
 Bq                   -0.84684  -1.7639    1. 
 Bq                   -0.975    -1.69623   1. 
 Bq                   -1.10317  -1.62856   1. 
 Bq                   -1.23133  -1.56089   1. 
 Bq                   -1.35949  -1.49323   1. 
 Bq                   -1.48765  -1.42556   1. 
 Bq                   -1.61581  -1.35789   1. 
 Bq                   -1.74397  -1.29023   1. 
 Bq                   -1.87213  -1.22256   1. 
 Bq                   -2.00029  -1.15489   1. 
 Bq                   -2.12845  -1.08723   1. 
 Bq                   -2.25661  -1.01956   1. 
 Bq                   -2.38477  -0.95189   1. 
 Bq                   -2.51293  -0.88422   1. 
 Bq                   -2.64109  -0.81656   1. 
 Bq                   -2.76925  -0.74889   1. 
 Bq                   -2.89741  -0.68122   1. 
 Bq                   -3.02558  -0.61356   1. 
 Bq                   -3.15374  -0.54589   1. 
 Bq                   -3.2819   -0.47822   1. 
 Bq                   -3.41006  -0.41055   1. 
 Bq                   -3.53822  -0.34289   1. 
 Bq                   -3.66638  -0.27522   1. 
 Bq                   -3.79454  -0.20755   1. 
 Bq                   -3.9227   -0.13989   1. 
 Bq                   -4.05086  -0.07222   1. 
 Bq                   -4.17902  -0.00455   1. 
 Bq                   -4.30718   0.06312   1. 
 Bq                   -4.43534   0.13078   1. 
 Bq                   -4.5635    0.19845   1. 
 Bq                   -4.69166   0.26612   1. 
 Bq                   -4.81982   0.33378   1. 
 Bq                   -4.94799   0.40145   1. 
 Bq                   -5.07615   0.46912   1. 
 Bq                   -5.20431   0.53679   1. 
 Bq                   -5.33247   0.60445   1. 
 Bq                    3.57829  -3.93642   1. 
 Bq                    3.45012  -3.86875   1. 
 Bq                    3.32196  -3.80108   1. 
 Bq                    3.1938   -3.73342   1. 
 Bq                    3.06564  -3.66575   1. 
 Bq                    2.93748  -3.59808   1. 
 Bq                    2.80932  -3.53041   1. 
 Bq                    2.68116  -3.46275   1. 
 Bq                    2.553    -3.39508   1. 
 Bq                    2.42484  -3.32741   1. 
 Bq                    2.29668  -3.25975   1. 
 Bq                    2.16852  -3.19208   1. 
 Bq                    2.04036  -3.12441   1. 
 Bq                    1.9122   -3.05674   1. 
 Bq                    1.78404  -2.98908   1. 
 Bq                    1.65588  -2.92141   1. 
 Bq                    1.52771  -2.85374   1. 
 Bq                    1.39955  -2.78608   1. 
 Bq                    1.27139  -2.71841   1. 
 Bq                    1.14323  -2.65074   1. 
 Bq                    1.01507  -2.58307   1. 
 Bq                    0.88691  -2.51541   1. 
 Bq                    0.75875  -2.44774   1. 
 Bq                    0.63059  -2.38007   1. 
 Bq                    0.50243  -2.31241   1. 
 Bq                    0.37427  -2.24474   1. 
[...]
 1,5.3105291979,0.9999948858\Bq,0,-1.3370036806,5.378196288,0.999994787
 6\Bq,0,-1.4651643442,5.445863378,0.9999946894\Bq,0,-1.5933250078,5.513
 530468,0.9999945912\Bq,0,-1.7214856713,5.581197558,0.999994493\Bq,0,-1
 .8496463349,5.6488646481,0.9999943948\Bq,0,-1.9778069985,5.7165317381,
 0.9999942966\Bq,0,-2.105967662,5.7841988281,0.9999941984\Bq,0,-2.23412
 83256,5.8518659181,0.9999941002\Bq,0,-2.3622889892,5.9195330081,0.9999
 94002\Bq,0,-2.4904496527,5.9872000982,0.9999939037\Bq,0,6.4203032234,1
 .4463315501,1.0000005819\Bq,0,6.2921425599,1.5139986402,1.0000004837\B
 q,0,6.1639818963,1.5816657302,1.0000003855\Bq,0,6.0358212327,1.6493328
 202,1.0000002873\Bq,0,5.9076605692,1.7169999102,1.0000001891\Bq,0,5.77
 94999056,1.7846670002,1.0000000909\Bq,0,5.651339242,1.8523340903,0.999
 9999927\Bq,0,5.5231785785,1.9200011803,0.9999998945\Bq,0,5.3950179149,
 1.9876682703,0.9999997963\Bq,0,5.2668572513,2.0553353603,0.9999996981\
 Bq,0,5.1386965878,2.1230024504,0.9999995999\Bq,0,5.0105359242,2.190669
 5404,0.9999995017\Bq,0,4.8823752606,2.2583366304,0.9999994035\Bq,0,4.7
 542145971,2.3260037204,0.9999993053\Bq,0,4.6260539335,2.3936708105,0.9
 999992071\Bq,0,4.4978932699,2.4613379005,0.9999991089\Bq,0,4.369732606
 3,2.5290049905,0.9999990107\Bq,0,4.2415719428,2.5966720805,0.999998912
 5\Bq,0,4.1134112792,2.6643391706,0.9999988142\Bq,0,3.9852506156,2.7320
 062606,0.999998716\Bq,0,3.8570899521,2.7996733506,0.9999986178\Bq,0,3.
 7289292885,2.8673404406,0.9999985196\Bq,0,3.6007686249,2.9350075306,0.
 9999984214\Bq,0,3.4726079614,3.0026746207,0.9999983232\Bq,0,3.34444729
 78,3.0703417107,0.999998225\Bq,0,3.2162866342,3.1380088007,0.999998126
 8\Bq,0,3.0881259707,3.2056758907,0.9999980286\Bq,0,2.9599653071,3.2733
 429808,0.9999979304\Bq,0,2.8318046435,3.3410100708,0.9999978322\Bq,0,2
 .70364398,3.4086771608,0.999997734\Bq,0,2.5754833164,3.4763442508,0.99
 99976358\Bq,0,2.4473226528,3.5440113409,0.9999975376\Bq,0,2.3191619893
 ,3.6116784309,0.9999974394\Bq,0,2.1910013257,3.6793455209,0.9999973412
 \Bq,0,2.0628406621,3.7470126109,0.999997243\Bq,0,1.9346799986,3.814679
 7009,0.9999971448\Bq,0,1.806519335,3.882346791,0.9999970466\Bq,0,1.678
 3586714,3.950013881,0.9999969484\Bq,0,1.5501980079,4.017680971,0.99999
 68501\Bq,0,1.4220373443,4.085348061,0.9999967519\Bq,0,1.2938766807,4.1
 530151511,0.9999966537\Bq,0,1.1657160172,4.2206822411,0.9999965555\Bq,
 0,1.0375553536,4.2883493311,0.9999964573\Bq,0,0.90939469,4.3560164211,
 0.9999963591\Bq,0,0.7812340265,4.4236835112,0.9999962609\Bq,0,0.653073
 3629,4.4913506012,0.9999961627\Bq,0,0.5249126993,4.5590176912,0.999996
 0645\Bq,0,0.3967520358,4.6266847812,0.9999959663\Bq,0,0.2685913722,4.6
 943518712,0.9999958681\Bq,0,0.1404307086,4.7620189613,0.9999957699\Bq,
 0,0.0122700451,4.8296860513,0.9999956717\Bq,0,-0.1158906185,4.89735314
 13,0.9999955735\Bq,0,-0.2440512821,4.9650202313,0.9999954753\Bq,0,-0.3
 722119456,5.0326873214,0.9999953771\Bq,0,-0.5003726092,5.1003544114,0.
 9999952789\Bq,0,-0.6285332728,5.1680215014,0.9999951807\Bq,0,-0.756693
 9363,5.2356885914,0.9999950825\Bq,0,-0.8848545999,5.3033556815,0.99999
 49843\Bq,0,-1.0130152635,5.3710227715,0.9999948861\Bq,0,-1.141175927,5
 .4386898615,0.9999947878\Bq,0,-1.2693365906,5.5063569515,0.9999946896\
 Bq,0,-1.3974972542,5.5740240415,0.9999945914\Bq,0,-1.5256579177,5.6416
 911316,0.9999944932\Bq,0,-1.6538185813,5.7093582216,0.999994395\Bq,0,-
 1.7819792449,5.7770253116,0.9999942968\Bq,0,-1.9101399085,5.8446924016
 ,0.9999941986\Bq,0,-2.038300572,5.9123594917,0.9999941004\Bq,0,-2.1664
 612356,5.9800265817,0.9999940022\Bq,0,-2.2946218992,6.0476936717,0.999
 993904\Bq,0,-2.4227825627,6.1153607617,0.9999938058\Bq,0,6.4879703135,
 1.5744922137,1.000000484\Bq,0,6.3598096499,1.6421593037,1.0000003858\B
 q,0,6.2316489863,1.7098263937,1.0000002876\Bq,0,6.1034883227,1.7774934
 838,1.0000001894\Bq,0,5.9753276592,1.8451605738,1.0000000912\Bq,0,5.84
 71669956,1.9128276638,0.999999993\Bq,0,5.719006332,1.9804947538,0.9999
 998948\Bq,0,5.5908456685,2.0481618439,0.9999997966\Bq,0,5.4626850049,2
 .1158289339,0.9999996983\Bq,0,5.3345243413,2.1834960239,0.9999996001\B
 q,0,5.2063636778,2.2511631139,0.9999995019\Bq,0,5.0782030142,2.3188302
 04,0.9999994037\Bq,0,4.9500423506,2.386497294,0.9999993055\Bq,0,4.8218
 816871,2.454164384,0.9999992073\Bq,0,4.6937210235,2.521831474,0.999999
 1091\Bq,0,4.5655603599,2.589498564,0.9999990109\Bq,0,4.4373996964,2.65
 71656541,0.9999989127\Bq,0,4.3092390328,2.7248327441,0.9999988145\Bq,0
 ,4.1810783692,2.7924998341,0.9999987163\Bq,0,4.0529177057,2.8601669241
 ,0.9999986181\Bq,0,3.9247570421,2.9278340142,0.9999985199\Bq,0,3.79659
 63785,2.9955011042,0.9999984217\Bq,0,3.668435715,3.0631681942,0.999998
 3235\Bq,0,3.5402750514,3.1308352842,0.9999982253\Bq,0,3.4121143878,3.1
 985023743,0.9999981271\Bq,0,3.2839537243,3.2661694643,0.9999980289\Bq,
 0,3.1557930607,3.3338365543,0.9999979307\Bq,0,3.0276323971,3.401503644
 3,0.9999978325\Bq,0,2.8994717336,3.4691707344,0.9999977342\Bq,0,2.7713
 1107,3.5368378244,0.999997636\Bq,0,2.6431504064,3.6045049144,0.9999975
 378\Bq,0,2.5149897429,3.6721720044,0.9999974396\Bq,0,2.3868290793,3.73
 98390944,0.9999973414\Bq,0,2.2586684157,3.8075061845,0.9999972432\Bq,0
 ,2.1305077522,3.8751732745,0.999997145\Bq,0,2.0023470886,3.9428403645,
 0.9999970468\Bq,0,1.874186425,4.0105074545,0.9999969486\Bq,0,1.7460257
 615,4.0781745446,0.9999968504\Bq,0,1.6178650979,4.1458416346,0.9999967
 522\Bq,0,1.4897044343,4.2135087246,0.999996654\Bq,0,1.3615437708,4.281
 1758146,0.9999965558\Bq,0,1.2333831072,4.3488429047,0.9999964576\Bq,0,
 1.1052224436,4.4165099947,0.9999963594\Bq,0,0.9770617801,4.4841770847,
 0.9999962612\Bq,0,0.8489011165,4.5518441747,0.999996163\Bq,0,0.7207404
 529,4.6195112647,0.9999960648\Bq,0,0.5925797894,4.6871783548,0.9999959
 666\Bq,0,0.4644191258,4.7548454448,0.9999958684\Bq,0,0.3362584622,4.82
 25125348,0.9999957702\Bq,0,0.2080977986,4.8901796248,0.9999956719\Bq,0
 ,0.0799371351,4.9578467149,0.9999955737\Bq,0,-0.0482235285,5.025513804
 9,0.9999954755\Bq,0,-0.1763841921,5.0931808949,0.9999953773\Bq,0,-0.30
 45448556,5.1608479849,0.9999952791\Bq,0,-0.4327055192,5.228515075,0.99
 99951809\Bq,0,-0.5608661828,5.296182165,0.9999950827\Bq,0,-0.689026846
 3,5.363849255,0.9999949845\Bq,0,-0.8171875099,5.431516345,0.9999948863
 \Bq,0,-0.9453481735,5.499183435,0.9999947881\Bq,0,-1.073508837,5.56685
 05251,0.9999946899\Bq,0,-1.2016695006,5.6345176151,0.9999945917\Bq,0,-
 1.3298301642,5.7021847051,0.9999944935\Bq,0,-1.4579908277,5.7698517951
 ,0.9999943953\Bq,0,-1.5861514913,5.8375188852,0.9999942971\Bq,0,-1.714
 3121549,5.9051859752,0.9999941989\Bq,0,-1.8424728184,5.9728530652,0.99
 99941007\Bq,0,-1.970633482,6.0405201552,0.9999940025\Bq,0,-2.098794145
 6,6.1081872453,0.9999939043\Bq,0,-2.2269548091,6.1758543353,0.99999380
 61\Bq,0,-2.3551154727,6.2435214253,0.9999937079\Bq,0,6.5556374035,1.70
 26528773,1.000000386\Bq,0,6.4274767399,1.7703199673,1.0000002878\Bq,0,
 6.2993160763,1.8379870573,1.0000001896\Bq,0,6.1711554128,1.9056541473,
 1.0000000914\Bq,0,6.0429947492,1.9733212374,0.9999999932\Bq,0,5.914834
 0856,2.0409883274,0.999999895\Bq,0,5.7866734221,2.1086554174,0.9999997
 968\Bq,0,5.6585127585,2.1763225074,0.9999996986\Bq,0,5.5303520949,2.24
 39895975,0.9999996004\Bq,0,5.4021914314,2.3116566875,0.9999995022\Bq,0
 ,5.2740307678,2.3793237775,0.999999404\Bq,0,5.1458701042,2.4469908675,
 0.9999993058\Bq,0,5.0177094407,2.5146579575,0.9999992076\Bq,0,4.889548
 7771,2.5823250476,0.9999991094\Bq,0,4.7613881135,2.6499921376,0.999999
 0112\Bq,0,4.63322745,2.7176592276,0.999998913\Bq,0,4.5050667864,2.7853
 263176,0.9999988148\Bq,0,4.3769061228,2.8529934077,0.9999987166\Bq,0,4
 .2487454593,2.9206604977,0.9999986183\Bq,0,4.1205847957,2.9883275877,0
 .9999985201\Bq,0,3.9924241321,3.0559946777,0.9999984219\Bq,0,3.8642634
 686,3.1236617678,0.9999983237\Bq,0,3.736102805,3.1913288578,0.99999822
 55\Bq,0,3.6079421414,3.2589959478,0.9999981273\Bq,0,3.4797814779,3.326
 6630378,0.9999980291\Bq,0,3.3516208143,3.3943301278,0.9999979309\Bq,0,
 3.2234601507,3.4619972179,0.9999978327\Bq,0,3.0952994872,3.5296643079,
 0.9999977345\Bq,0,2.9671388236,3.5973313979,0.9999976363\Bq,0,2.838978
 16,3.6649984879,0.9999975381\Bq,0,2.7108174965,3.732665578,0.999997439
 9\Bq,0,2.5826568329,3.800332668,0.9999973417\Bq,0,2.4544961693,3.86799
 9758,0.9999972435\Bq,0,2.3263355058,3.935666848,0.9999971453\Bq,0,2.19
 81748422,4.0033339381,0.9999970471\Bq,0,2.0700141786,4.0710010281,0.99
 99969489\Bq,0,1.941853515,4.1386681181,0.9999968507\Bq,0,1.8136928515,
 4.2063352081,0.9999967525\Bq,0,1.6855321879,4.2740022982,0.9999966543\
 Bq,0,1.5573715243,4.3416693882,0.999996556\Bq,0,1.4292108608,4.4093364
 782,0.9999964578\Bq,0,1.3010501972,4.4770035682,0.9999963596\Bq,0,1.17
 28895336,4.5446706582,0.9999962614\Bq,0,1.0447288701,4.6123377483,0.99
 99961632\Bq,0,0.9165682065,4.6800048383,0.999996065\Bq,0,0.7884075429,
 4.7476719283,0.9999959668\Bq,0,0.6602468794,4.8153390183,0.9999958686\
 Bq,0,0.5320862158,4.8830061084,0.9999957704\Bq,0,0.4039255522,4.950673
 1984,0.9999956722\Bq,0,0.2757648887,5.0183402884,0.999995574\Bq,0,0.14
 76042251,5.0860073784,0.9999954758\Bq,0,0.0194435615,5.1536744685,0.99
 99953776\Bq,0,-0.108717102,5.2213415585,0.9999952794\Bq,0,-0.236877765
 6,5.2890086485,0.9999951812\Bq,0,-0.3650384292,5.3566757385,0.99999508
 3\Bq,0,-0.4931990927,5.4243428285,0.9999949848\Bq,0,-0.6213597563,5.49
 20099186,0.9999948866\Bq,0,-0.7495204199,5.5596770086,0.9999947884\Bq,
 0,-0.8776810834,5.6273440986,0.9999946902\Bq,0,-1.005841747,5.69501118
 86,0.999994592\Bq,0,-1.1340024106,5.7626782787,0.9999944937\Bq,0,-1.26
 21630741,5.8303453687,0.9999943955\Bq,0,-1.3903237377,5.8980124587,0.9
 999942973\Bq,0,-1.5184844013,5.9656795487,0.9999941991\Bq,0,-1.6466450
 648,6.0333466388,0.9999941009\Bq,0,-1.7748057284,6.1010137288,0.999994
 0027\Bq,0,-1.902966392,6.1686808188,0.9999939045\Bq,0,-2.0311270555,6.
 2363479088,0.9999938063\Bq,0,-2.1592877191,6.3040149988,0.9999937081\B
 q,0,-2.2874483827,6.3716820889,0.9999936099\Bq,0,6.6233044935,1.830813
 5408,1.0000002881\Bq,0,6.4951438299,1.8984806309,1.0000001899\Bq,0,6.3
 669831664,1.9661477209,1.0000000917\Bq,0,6.2388225028,2.0338148109,0.9
 999999935\Bq,0,6.1106618392,2.1014819009,0.9999998953\Bq,0,5.982501175
 7,2.169148991,0.9999997971\Bq,0,5.8543405121,2.236816081,0.9999996989\
 Bq,0,5.7261798485,2.304483171,0.9999996007\Bq,0,5.598019185,2.37215026
 1,0.9999995024\Bq,0,5.4698585214,2.439817351,0.9999994042\Bq,0,5.34169
 78578,2.5074844411,0.999999306\Bq,0,5.2135371943,2.5751515311,0.999999
 2078\Bq,0,5.0853765307,2.6428186211,0.9999991096\Bq,0,4.9572158671,2.7
 104857111,0.9999990114\Bq,0,4.8290552036,2.7781528012,0.9999989132\Bq,
 0,4.70089454,2.8458198912,0.999998815\Bq,0,4.5727338764,2.9134869812,0
 .9999987168\Bq,0,4.4445732129,2.9811540712,0.9999986186\Bq,0,4.3164125
 493,3.0488211613,0.9999985204\Bq,0,4.1882518857,3.1164882513,0.9999984
 222\Bq,0,4.0600912221,3.1841553413,0.999998324\Bq,0,3.9319305586,3.251
 8224313,0.9999982258\Bq,0,3.803769895,3.3194895213,0.9999981276\Bq,0,3
 .6756092314,3.3871566114,0.9999980294\Bq,0,3.5474485679,3.4548237014,0
 .9999979312\Bq,0,3.4192879043,3.5224907914,0.999997833\Bq,0,3.29112724
 07,3.5901578814,0.9999977348\Bq,0,3.1629665772,3.6578249715,0.99999763
 66\Bq,0,3.0348059136,3.7254920615,0.9999975384\Bq,0,2.90664525,3.79315
 91515,0.9999974401\Bq,0,2.7784845865,3.8608262415,0.9999973419\Bq,0,2.
 6503239229,3.9284933316,0.9999972437\Bq,0,2.5221632593,3.9961604216,0.
 9999971455\Bq,0,2.3940025958,4.0638275116,0.9999970473\Bq,0,2.26584193
 22,4.1314946016,0.9999969491\Bq,0,2.1376812686,4.1991616916,0.99999685
 09\Bq,0,2.0095206051,4.2668287817,0.9999967527\Bq,0,1.8813599415,4.334
 4958717,0.9999966545\Bq,0,1.7531992779,4.4021629617,0.9999965563\Bq,0,
 1.6250386144,4.4698300517,0.9999964581\Bq,0,1.4968779508,4.5374971418,
 0.9999963599\Bq,0,1.3687172872,4.6051642318,0.9999962617\Bq,0,1.240556
 6237,4.6728313218,0.9999961635\Bq,0,1.1123959601,4.7404984118,0.999996
 0653\Bq,0,0.9842352965,4.8081655019,0.9999959671\Bq,0,0.856074633,4.87
 58325919,0.9999958689\Bq,0,0.7279139694,4.9434996819,0.9999957707\Bq,0
 ,0.5997533058,5.0111667719,0.9999956725\Bq,0,0.4715926423,5.0788338619
 ,0.9999955743\Bq,0,0.3434319787,5.146500952,0.9999954761\Bq,0,0.215271
 3151,5.214168042,0.9999953778\Bq,0,0.0871106516,5.281835132,0.99999527
 96\Bq,0,-0.041050012,5.349502222,0.9999951814\Bq,0,-0.1692106756,5.417
 1693121,0.9999950832\Bq,0,-0.2973713391,5.4848364021,0.999994985\Bq,0,
 -0.4255320027,5.5525034921,0.9999948868\Bq,0,-0.5536926663,5.620170582
 1,0.9999947886\Bq,0,-0.6818533298,5.6878376722,0.9999946904\Bq,0,-0.81
 00139934,5.7555047622,0.9999945922\Bq,0,-0.938174657,5.8231718522,0.99
 9994494\Bq,0,-1.0663353205,5.8908389422,0.9999943958\Bq,0,-1.194495984
 1,5.9585060323,0.9999942976\Bq,0,-1.3226566477,6.0261731223,0.99999419
 94\Bq,0,-1.4508173112,6.0938402123,0.9999941012\Bq,0,-1.5789779748,6.1
 615073023,0.999994003\Bq,0,-1.7071386384,6.2291743923,0.9999939048\Bq,
 0,-1.8352993019,6.2968414824,0.9999938066\Bq,0,-1.9634599655,6.3645085
 724,0.9999937084\Bq,0,-2.0916206291,6.4321756624,0.9999936102\Bq,0,-2.
 2197812927,6.4998427524,0.999993512\Bq,0,6.6909715835,1.9589742044,1.0
 000001901\Bq,0,6.56281092,2.0266412944,1.0000000919\Bq,0,6.4346502564,
 2.0943083844,0.9999999937\Bq,0,6.3064895928,2.1619754745,0.9999998955\
 Bq,0,6.1783289293,2.2296425645,0.9999997973\Bq,0,6.0501682657,2.297309
 6545,0.9999996991\Bq,0,5.9220076021,2.3649767445,0.9999996009\Bq,0,5.7
 938469385,2.4326438346,0.9999995027\Bq,0,5.665686275,2.5003109246,0.99
 99994045\Bq,0,5.5375256114,2.5679780146,0.9999993063\Bq,0,5.4093649478
 ,2.6356451046,0.9999992081\Bq,0,5.2812042843,2.7033121947,0.9999991099
 \Bq,0,5.1530436207,2.7709792847,0.9999990117\Bq,0,5.0248829571,2.83864
 63747,0.9999989135\Bq,0,4.8967222936,2.9063134647,0.9999988153\Bq,0,4.
 76856163,2.9739805548,0.9999987171\Bq,0,4.6404009664,3.0416476448,0.99
 99986189\Bq,0,4.5122403029,3.1093147348,0.9999985207\Bq,0,4.3840796393
 ,3.1769818248,0.9999984225\Bq,0,4.2559189757,3.2446489148,0.9999983242
 \Bq,0,4.1277583122,3.3123160049,0.999998226\Bq,0,3.9995976486,3.379983
 0949,0.9999981278\Bq,0,3.871436985,3.4476501849,0.9999980296\Bq,0,3.74
 32763215,3.5153172749,0.9999979314\Bq,0,3.6151156579,3.582984365,0.999
 9978332\Bq,0,3.4869549943,3.650651455,0.999997735\Bq,0,3.3587943308,3.
 718318545,0.9999976368\Bq,0,3.2306336672,3.785985635,0.9999975386\Bq,0
 ,3.1024730036,3.8536527251,0.9999974404\Bq,0,2.9743123401,3.9213198151
 ,0.9999973422\Bq,0,2.8461516765,3.9889869051,0.999997244\Bq,0,2.717991
 0129,4.0566539951,0.9999971458\Bq,0,2.5898303494,4.1243210851,0.999997
 0476\Bq,0,2.4616696858,4.1919881752,0.9999969494\Bq,0,2.3335090222,4.2
 596552652,0.9999968512\Bq,0,2.2053483587,4.3273223552,0.999996753\Bq,0
 ,2.0771876951,4.3949894452,0.9999966548\Bq,0,1.9490270315,4.4626565353
 ,0.9999965566\Bq,0,1.820866368,4.5303236253,0.9999964584\Bq,0,1.692705
 7044,4.5979907153,0.9999963602\Bq,0,1.5645450408,4.6656578053,0.999996
 2619\Bq,0,1.4363843773,4.7333248954,0.9999961637\Bq,0,1.3082237137,4.8
 009919854,0.9999960655\Bq,0,1.1800630501,4.8686590754,0.9999959673\Bq,
 0,1.0519023866,4.9363261654,0.9999958691\Bq,0,0.923741723,5.0039932554
 ,0.9999957709\Bq,0,0.7955810594,5.0716603455,0.9999956727\Bq,0,0.66742
 03959,5.1393274355,0.9999955745\Bq,0,0.5392597323,5.2069945255,0.99999
 54763\Bq,0,0.4110990687,5.2746616155,0.9999953781\Bq,0,0.2829384052,5.
 3423287056,0.9999952799\Bq,0,0.1547777416,5.4099957956,0.9999951817\Bq
 ,0,0.026617078,5.4776628856,0.9999950835\Bq,0,-0.1015435855,5.54532997
 56,0.9999949853\Bq,0,-0.2297042491,5.6129970657,0.9999948871\Bq,0,-0.3
 578649127,5.6806641557,0.9999947889\Bq,0,-0.4860255763,5.7483312457,0.
 9999946907\Bq,0,-0.6141862398,5.8159983357,0.9999945925\Bq,0,-0.742346
 9034,5.8836654257,0.9999944943\Bq,0,-0.870507567,5.9513325158,0.999994
 3961\Bq,0,-0.9986682305,6.0189996058,0.9999942979\Bq,0,-1.1268288941,6
 .0866666958,0.9999941996\Bq,0,-1.2549895577,6.1543337858,0.9999941014\
 Bq,0,-1.3831502212,6.2220008759,0.9999940032\Bq,0,-1.5113108848,6.2896
 679659,0.999993905\Bq,0,-1.6394715484,6.3573350559,0.9999938068\Bq,0,-
 1.7676322119,6.4250021459,0.9999937086\Bq,0,-1.8957928755,6.492669236,
 0.9999936104\Bq,0,-2.0239535391,6.560336326,0.9999935122\Bq,0,-2.15211
 42026,6.628003416,0.999993414\Bq,0,6.7586386735,2.087134868,1.00000009
 22\Bq,0,6.63047801,2.154801958,0.999999994\Bq,0,6.5023173464,2.2224690
 48,0.9999998958\Bq,0,6.3741566828,2.290136138,0.9999997976\Bq,0,6.2459
 960193,2.3578032281,0.9999996994\Bq,0,6.1178353557,2.4254703181,0.9999
 996012\Bq,0,5.9896746921,2.4931374081,0.999999503\Bq,0,5.8615140286,2.
 5608044981,0.9999994048\Bq,0,5.733353365,2.6284715882,0.9999993066\Bq,
 0,5.6051927014,2.6961386782,0.9999992083\Bq,0,5.4770320379,2.763805768
 2,0.9999991101\Bq,0,5.3488713743,2.8314728582,0.9999990119\Bq,0,5.2207
 107107,2.8991399482,0.9999989137\Bq,0,5.0925500472,2.9668070383,0.9999
 988155\Bq,0,4.9643893836,3.0344741283,0.9999987173\Bq,0,4.83622872,3.1
 021412183,0.9999986191\Bq,0,4.7080680565,3.1698083083,0.9999985209\Bq,
 0,4.5799073929,3.2374753984,0.9999984227\Bq,0,4.4517467293,3.305142488
 4,0.9999983245\Bq,0,4.3235860658,3.3728095784,0.9999982263\Bq,0,4.1954
 254022,3.4404766684,0.9999981281\Bq,0,4.0672647386,3.5081437585,0.9999
 980299\Bq,0,3.9391040751,3.5758108485,0.9999979317\Bq,0,3.8109434115,3
 .6434779385,0.9999978335\Bq,0,3.6827827479,3.7111450285,0.9999977353\B
 q,0,3.5546220844,3.7788121186,0.9999976371\Bq,0,3.4264614208,3.8464792
 086,0.9999975389\Bq,0,3.2983007572,3.9141462986,0.9999974407\Bq,0,3.17
 01400937,3.9818133886,0.9999973425\Bq,0,3.0419794301,4.0494804786,0.99
 99972443\Bq,0,2.9138187665,4.1171475687,0.999997146\Bq,0,2.785658103,4
 .1848146587,0.9999970478\Bq,0,2.6574974394,4.2524817487,0.9999969496\B
 q,0,2.5293367758,4.3201488387,0.9999968514\Bq,0,2.4011761123,4.3878159
 288,0.9999967532\Bq,0,2.2730154487,4.4554830188,0.999996655\Bq,0,2.144
 8547851,4.5231501088,0.9999965568\Bq,0,2.0166941216,4.5908171988,0.999
 9964586\Bq,0,1.888533458,4.6584842889,0.9999963604\Bq,0,1.7603727944,4
 .7261513789,0.9999962622\Bq,0,1.6322121308,4.7938184689,0.999996164\Bq
 ,0,1.5040514673,4.8614855589,0.9999960658\Bq,0,1.3758908037,4.92915264
 89,0.9999959676\Bq,0,1.2477301401,4.996819739,0.9999958694\Bq,0,1.1195
 694766,5.064486829,0.9999957712\Bq,0,0.991408813,5.132153919,0.9999956
 73\Bq,0,0.8632481494,5.199821009,0.9999955748\Bq,0,0.7350874859,5.2674
 880991,0.9999954766\Bq,0,0.6069268223,5.3351551891,0.9999953784\Bq,0,0
 .4787661587,5.4028222791,0.9999952802\Bq,0,0.3506054952,5.4704893691,0
 .999995182\Bq,0,0.2224448316,5.5381564592,0.9999950837\Bq,0,0.09428416
 8,5.6058235492,0.9999949855\Bq,0,-0.0338764955,5.6734906392,0.99999488
 73\Bq,0,-0.1620371591,5.7411577292,0.9999947891\Bq,0,-0.2901978227,5.8
 088248192,0.9999946909\Bq,0,-0.4183584862,5.8764919093,0.9999945927\Bq
 ,0,-0.5465191498,5.9441589993,0.9999944945\Bq,0,-0.6746798134,6.011826
 0893,0.9999943963\Bq,0,-0.8028404769,6.0794931793,0.9999942981\Bq,0,-0
 .9310011405,6.1471602694,0.9999941999\Bq,0,-1.0591618041,6.2148273594,
 0.9999941017\Bq,0,-1.1873224676,6.2824944494,0.9999940035\Bq,0,-1.3154
 831312,6.3501615394,0.9999939053\Bq,0,-1.4436437948,6.4178286295,0.999
 9938071\Bq,0,-1.5718044583,6.4854957195,0.9999937089\Bq,0,-1.699965121
 9,6.5531628095,0.9999936107\Bq,0,-1.8281257855,6.6208298995,0.99999351
 25\Bq,0,-1.956286449,6.6884969895,0.9999934143\Bq,0,-2.0844471126,6.75
 61640796,0.9999933161\\Version=EM64L-G09RevD.01\HF=-18479.6818621\RMSD
 =4.423e-09\Dipole=0.0000043,0.0000028,0.\Quadrupole=-0.1203388,-0.1203
 254,0.2406642,0.0000217,0.0000025,-0.0000036\PG=C01 [X(C16As8)]\\@


 I take a simple view of life: keep your eyes open and get on with it.
 -- Laurence Olivier
 Job cpu time:       0 days  1 hours 16 minutes  8.4 seconds.
 File lengths (MBytes):  RWF=    164 Int=      0 D2E=      0 Chk=     23 Scr=      1
 Normal termination of Gaussian 09 at Tue Apr  9 09:28:41 2019.
