 Entering Gaussian System, Link 0=g09
 Input=asn10.gjf
 Output=asn10.log
 Initial command:
 /opt/local/g09/l1.exe "/home/scratch/oscar/Gau-17198.inp" -scrdir="/home/scratch/oscar/"
 Default is to use a total of  16 processors:
                               16 via shared-memory
                                1 via Linda
 Entering Link 1 = /opt/local/g09/l1.exe PID=     17199.
  
 Copyright (c) 1988,1990,1992,1993,1995,1998,2003,2009,2013,
            Gaussian, Inc.  All Rights Reserved.
  
 This is part of the Gaussian(R) 09 program.  It is based on
 the Gaussian(R) 03 system (copyright 2003, Gaussian, Inc.),
 the Gaussian(R) 98 system (copyright 1998, Gaussian, Inc.),
 the Gaussian(R) 94 system (copyright 1995, Gaussian, Inc.),
 the Gaussian 92(TM) system (copyright 1992, Gaussian, Inc.),
 the Gaussian 90(TM) system (copyright 1990, Gaussian, Inc.),
 the Gaussian 88(TM) system (copyright 1988, Gaussian, Inc.),
 the Gaussian 86(TM) system (copyright 1986, Carnegie Mellon
 University), and the Gaussian 82(TM) system (copyright 1983,
 Carnegie Mellon University). Gaussian is a federally registered
 trademark of Gaussian, Inc.
  
 This software contains proprietary and confidential information,
 including trade secrets, belonging to Gaussian, Inc.
  
 This software is provided under written license and may be
 used, copied, transmitted, or stored only in accord with that
 written license.
  
 The following legend is applicable only to US Government
 contracts under FAR:
  
                    RESTRICTED RIGHTS LEGEND
  
 Use, reproduction and disclosure by the US Government is
 subject to restrictions as set forth in subparagraphs (a)
 and (c) of the Commercial Computer Software - Restricted
 Rights clause in FAR 52.227-19.
  
 Gaussian, Inc.
 340 Quinnipiac St., Bldg. 40, Wallingford CT 06492
  
  
 ---------------------------------------------------------------
 Warning -- This program may not be used in any manner that
 competes with the business of Gaussian, Inc. or will provide
 assistance to any competitor of Gaussian, Inc.  The licensee
 of this program is prohibited from giving any competitor of
 Gaussian, Inc. access to this program.  By using this program,
 the user acknowledges that Gaussian, Inc. is engaged in the
 business of creating and licensing software in the field of
 computational chemistry and represents and warrants to the
 licensee that it is not a competitor of Gaussian, Inc. and that
 it will not use this program in any manner prohibited above.
 ---------------------------------------------------------------
  

 Cite this work as:
 Gaussian 09, Revision D.01,
 M. J. Frisch, G. W. Trucks, H. B. Schlegel, G. E. Scuseria, 
 M. A. Robb, J. R. Cheeseman, G. Scalmani, V. Barone, B. Mennucci, 
 G. A. Petersson, H. Nakatsuji, M. Caricato, X. Li, H. P. Hratchian, 
 A. F. Izmaylov, J. Bloino, G. Zheng, J. L. Sonnenberg, M. Hada, 
 M. Ehara, K. Toyota, R. Fukuda, J. Hasegawa, M. Ishida, T. Nakajima, 
 Y. Honda, O. Kitao, H. Nakai, T. Vreven, J. A. Montgomery, Jr., 
 J. E. Peralta, F. Ogliaro, M. Bearpark, J. J. Heyd, E. Brothers, 
 K. N. Kudin, V. N. Staroverov, T. Keith, R. Kobayashi, J. Normand, 
 K. Raghavachari, A. Rendell, J. C. Burant, S. S. Iyengar, J. Tomasi, 
 M. Cossi, N. Rega, J. M. Millam, M. Klene, J. E. Knox, J. B. Cross, 
 V. Bakken, C. Adamo, J. Jaramillo, R. Gomperts, R. E. Stratmann, 
 O. Yazyev, A. J. Austin, R. Cammi, C. Pomelli, J. W. Ochterski, 
 R. L. Martin, K. Morokuma, V. G. Zakrzewski, G. A. Voth, 
 P. Salvador, J. J. Dannenberg, S. Dapprich, A. D. Daniels, 
 O. Farkas, J. B. Foresman, J. V. Ortiz, J. Cioslowski, 
 and D. J. Fox, Gaussian, Inc., Wallingford CT, 2013.
 
 ******************************************
 Gaussian 09:  EM64L-G09RevD.01 24-Apr-2013
                 4-Feb-2020 
 ******************************************
 -------------------------------------------------------------
 # nmr=giao b3lyp/6-31G* nosymm geom=connectivity guess=huckel
 -------------------------------------------------------------
 1/38=1,57=2/1;
 2/12=2,15=1,17=6,18=5,40=1/2;
 3/5=1,6=6,7=1,11=2,16=1,25=1,30=1,74=-5/1,2,8,3;
 4/11=4/1;
 5/5=2,38=5/2;
 8/6=1,10=90,11=11/1;
 10/13=100,31=1,45=16/2;
 6/7=2,8=2,9=2,10=2,28=1/1;
 99/9=1/99;
 -----
 input
 -----
 Symbolic Z-matrix:
 Charge =  0 Multiplicity = 1
 C                    -2.10493  -0.40545  -0.414 
 C                    -1.57414  -1.44444   0.43952 
 C                    -0.27524  -2.03715   0.68151 
 C                     0.98925  -1.9701   -0.01597 
 C                    -1.80135   0.98287  -0.69129 
 C                     1.8014   -0.98286  -0.69116 
 C                     2.10508   0.40551  -0.41389 
 C                    -0.98917   1.97008  -0.01614 
 C                     1.57423   1.44453   0.43956 
 C                     0.27526   2.03717   0.68155 
 As                   -4.14653   0.45386  -2.04166 
 As                   -2.95821   3.41262  -1.2626 
 As                   -0.97755   4.43319   1.18505 
 As                    2.07069   3.59846   2.07482 
 As                    4.20467   2.10611   0.04473 
 As                    4.14637  -0.45394  -2.0419 
 As                    2.95839  -3.41261  -1.26231 
 As                    0.97713  -4.43342   1.18482 
 As                   -2.07078  -3.59843   2.07478 
 As                   -4.20461  -2.10596   0.04476 
 N                    -3.35745  -0.72607  -0.8516 
 N                    -2.79203   1.57061  -1.42704 
 N                    -1.59803   3.19129  -0.03299 
 N                     0.38351   3.19039   1.40695 
 N                     2.57176   2.25188   0.90465 
 N                     3.35753   0.72604  -0.85169 
 N                     2.792    -1.57063  -1.42696 
 N                     1.59812  -3.19134  -0.03281 
 N                    -0.38369  -3.19044   1.40677 
 N                    -2.5717   -2.25177   0.90454 
 Bq                   -4.70286  -4.70286   4.68775 
 Bq                   -4.56655  -4.70286   4.72576 
 Bq                   -4.43023  -4.70286   4.74998 
 Bq                   -4.29392  -4.70286   4.76171 
 Bq                   -4.1576   -4.70286   4.77251 
 Bq                   -4.02129  -4.70286   4.78903 
 Bq                   -3.88498  -4.70286   4.80658 
 Bq                   -3.74866  -4.70286   4.81595 
 Bq                   -3.61235  -4.70286   4.81324 
 Bq                   -3.47603  -4.70286   4.80238 
 Bq                   -3.33972  -4.70286   4.79019 
 Bq                   -3.2034   -4.70286   4.78037 
 Bq                   -3.06709  -4.70286   4.77143 
 Bq                   -2.93077  -4.70286   4.75892 
 Bq                   -2.79446  -4.70286   4.73892 
 Bq                   -2.65814  -4.70286   4.71027 
 Bq                   -2.52183  -4.70286   4.67442 
 Bq                   -2.38551  -4.70286   4.63407 
 Bq                   -2.2492   -4.70286   4.59152 
 Bq                   -2.11288  -4.70286   4.54787 
 Bq                   -1.97657  -4.70286   4.50293 
 Bq                   -1.84025  -4.70286   4.45571 
 Bq                   -1.70394  -4.70286   4.40501 
 Bq                   -1.56762  -4.70286   4.34986 
 Bq                   -1.43131  -4.70286   4.28968 
 Bq                   -1.29499  -4.70286   4.2243 
 Bq                   -1.15868  -4.70286   4.15387 
 Bq                   -1.02236  -4.70286   4.07865 
 Bq                   -0.88605  -4.70286   3.99896 
 Bq                   -0.74973  -4.70286   3.9151 
 Bq                   -0.61342  -4.70286   3.82727 
 Bq                   -0.4771   -4.70286   3.73561 
 Bq                   -0.34079  -4.70286   3.64023 
 Bq                   -0.20447  -4.70286   3.54114 
 Bq                   -0.06816  -4.70286   3.43839 
 Bq                    0.06816  -4.70286   3.33197 
 Bq                    0.20447  -4.70286   3.22187 
 Bq                    0.34079  -4.70286   3.10811 
 Bq                    0.4771   -4.70286   2.99065 
 Bq                    0.61342  -4.70286   2.86945 
 Bq                    0.74973  -4.70286   2.74443 
 Bq                    0.88605  -4.70286   2.61545 
 Bq                    1.02236  -4.70286   2.48228 
 Bq                    1.15868  -4.70286   2.34464 
 Bq                    1.29499  -4.70286   2.20223 
 Bq                    1.43131  -4.70286   2.05474 
 Bq                    1.56762  -4.70286   1.90206 
 Bq                    1.70394  -4.70286   1.74435 
 Bq                    1.84025  -4.70286   1.58218 
 Bq                    1.97657  -4.70286   1.41654 
 Bq                    2.11288  -4.70286   1.24861 
 Bq                    2.2492   -4.70286   1.07939 
 Bq                    2.38551  -4.70286   0.90907 
 Bq                    2.52183  -4.70286   0.73655 
 Bq                    2.65814  -4.70286   0.55952 
 Bq                    2.79446  -4.70286   0.3753 
 Bq                    2.93077  -4.70286   0.18242 
 Bq                    3.06709  -4.70286  -0.01794 
 Bq                    3.2034   -4.70286  -0.22188 
 Bq                    3.33972  -4.70286  -0.42494 
 Bq                    3.47603  -4.70286  -0.62562 
 Bq                    3.61235  -4.70286  -0.82763 
 Bq                    3.74866  -4.70286  -1.0378 
 Bq                    3.88498  -4.70286  -1.26005 
 Bq                    4.02129  -4.70286  -1.49046 
 Bq                    4.1576   -4.70286  -1.71986 
 Bq                    4.29392  -4.70286  -1.94353 
 Bq                    4.43023  -4.70286  -2.16813 
 Bq                    4.56655  -4.70286  -2.40521 
 Bq                    4.70286  -4.70286  -2.65608 
 Bq                   -4.70286  -4.56655   4.45345 
 Bq                   -4.56655  -4.56655   4.48453 
 Bq                   -4.43023  -4.56655   4.50293 
 Bq                   -4.29392  -4.56655   4.52131 
 Bq                   -4.1576   -4.56655   4.54607 
 Bq                   -4.02129  -4.56655   4.57089 
 Bq                   -3.88498  -4.56655   4.58588 
 Bq                   -3.74866  -4.56655   4.58842 
 Bq                   -3.61235  -4.56655   4.58438 
 Bq                   -3.47603  -4.56655   4.58111 
 Bq                   -3.33972  -4.56655   4.58092 
 Bq                   -3.2034   -4.56655   4.58024 
 Bq                   -3.06709  -4.56655   4.5736 
 Bq                   -2.93077  -4.56655   4.55778 
 Bq                   -2.79446  -4.56655   4.53337 
 Bq                   -2.65814  -4.56655   4.50341 
 Bq                   -2.52183  -4.56655   4.47119 
 Bq                   -2.38551  -4.56655   4.43847 
 Bq                   -2.2492   -4.56655   4.40515 
 Bq                   -2.11288  -4.56655   4.36985 
 Bq                   -1.97657  -4.56655   4.33082 
 Bq                   -1.84025  -4.56655   4.28668 
 Bq                   -1.70394  -4.56655   4.23677 
 Bq                   -1.56762  -4.56655   4.18107 
 Bq                   -1.43131  -4.56655   4.11998 
 Bq                   -1.29499  -4.56655   4.05408 
 Bq                   -1.15868  -4.56655   3.98392 
 Bq                   -1.02236  -4.56655   3.90991 
 Bq                   -0.88605  -4.56655   3.83228 
 Bq                   -0.74973  -4.56655   3.75113 
 Bq                   -0.61342  -4.56655   3.66645 
 Bq                   -0.4771   -4.56655   3.57819 
 Bq                   -0.34079  -4.56655   3.48625 
 Bq                   -0.20447  -4.56655   3.39056 
 Bq                   -0.06816  -4.56655   3.29107 
 Bq                    0.06816  -4.56655   3.18773 
 Bq                    0.20447  -4.56655   3.08055 
 Bq                    0.34079  -4.56655   2.96956 
 Bq                    0.4771   -4.56655   2.85482 
 Bq                    0.61342  -4.56655   2.7364 
 Bq                    0.74973  -4.56655   2.6144 
 Bq                    0.88605  -4.56655   2.48887 
 Bq                    1.02236  -4.56655   2.35981 
 Bq                    1.15868  -4.56655   2.22714 
 Bq                    1.29499  -4.56655   2.09061 
 Bq                    1.43131  -4.56655   1.94982 
 Bq                    1.56762  -4.56655   1.80422 
 Bq                    1.70394  -4.56655   1.65324 
 Bq                    1.84025  -4.56655   1.49645 
 Bq                    1.97657  -4.56655   1.33389 
 Bq                    2.11288  -4.56655   1.16623 
 Bq                    2.2492   -4.56655   0.99483 
 Bq                    2.38551  -4.56655   0.82144 
 Bq                    2.52183  -4.56655   0.64746 
 Bq                    2.65814  -4.56655   0.47298 
 Bq                    2.79446  -4.56655   0.29623 
 Bq                    2.93077  -4.56655   0.11394 
 Bq                    3.06709  -4.56655  -0.07696 
 Bq                    3.2034   -4.56655  -0.27702 
 Bq                    3.33972  -4.56655  -0.48305 
 Bq                    3.47603  -4.56655  -0.68956 
 Bq                    3.61235  -4.56655  -0.893 
 Bq                    3.74866  -4.56655  -1.09566 
 Bq                    3.88498  -4.56655  -1.3049 
 Bq                    4.02129  -4.56655  -1.52659 
 Bq                    4.1576   -4.56655  -1.75812 
 Bq                    4.29392  -4.56655  -1.98957 
 Bq                    4.43023  -4.56655  -2.21465 
 Bq                    4.56655  -4.56655  -2.43974 
 Bq                    4.70286  -4.56655  -2.67751 
 Bq                   -4.70286  -4.43023   4.21337 
 Bq                   -4.56655  -4.43023   4.23863 
 Bq                   -4.43023  -4.43023   4.26408 
 Bq                   -4.29392  -4.43023   4.29648 
 Bq                   -4.1576   -4.43023   4.32849 
 Bq                   -4.02129  -4.43023   4.34951 
 Bq                   -3.88498  -4.43023   4.35792 
 Bq                   -3.74866  -4.43023   4.3611 
 Bq                   -3.61235  -4.43023   4.36665 
 Bq                   -3.47603  -4.43023   4.37539 
 Bq                   -3.33972  -4.43023   4.38202 
 Bq                   -3.2034   -4.43023   4.38064 
 Bq                   -3.06709  -4.43023   4.36922 
 Bq                   -2.93077  -4.43023   4.35013 
 Bq                   -2.79446  -4.43023   4.32759 
 Bq                   -2.65814  -4.43023   4.3047 
 Bq                   -2.52183  -4.43023   4.2821 
 Bq                   -2.38551  -4.43023   4.25827 
 Bq                   -2.2492   -4.43023   4.23085 
 Bq                   -2.11288  -4.43023   4.1979 
 Bq                   -1.97657  -4.43023   4.15847 
 Bq                   -1.84025  -4.43023   4.11267 
 Bq                   -1.70394  -4.43023   4.06126 
 Bq                   -1.56762  -4.43023   4.00519 
 Bq                   -1.43131  -4.43023   3.94528 
 Bq                   -1.29499  -4.43023   3.88207 
 Bq                   -1.15868  -4.43023   3.81578 
 Bq                   -1.02236  -4.43023   3.74638 
 Bq                   -0.88605  -4.43023   3.67371 
 Bq                   -0.74973  -4.43023   3.59756 
 Bq                   -0.61342  -4.43023   3.51771 
 Bq                   -0.4771   -4.43023   3.43397 
 Bq                   -0.34079  -4.43023   3.3462 
 Bq                   -0.20447  -4.43023   3.25432 
 Bq                   -0.06816  -4.43023   3.15827 
 Bq                    0.06816  -4.43023   3.05801 
 Bq                    0.20447  -4.43023   2.95356 
 Bq                    0.34079  -4.43023   2.84494 
 Bq                    0.4771   -4.43023   2.73219 
 Bq                    0.61342  -4.43023   2.61542 
 Bq                    0.74973  -4.43023   2.49477 
 Bq                    0.88605  -4.43023   2.37041 
 Bq                    1.02236  -4.43023   2.24256 
 Bq                    1.15868  -4.43023   2.11144 
 Bq                    1.29499  -4.43023   1.97722 
 Bq                    1.43131  -4.43023   1.83991 
 Bq                    1.56762  -4.43023   1.6993 
 Bq                    1.70394  -4.43023   1.55484 
 Bq                    1.84025  -4.43023   1.40573 
 Bq                    1.97657  -4.43023   1.251 
 Bq                    2.11288  -4.43023   1.0899 
 Bq                    2.2492   -4.43023   0.92233 
 Bq                    2.38551  -4.43023   0.74922 
 Bq                    2.52183  -4.43023   0.57251 
 Bq                    2.65814  -4.43023   0.39458 
 Bq                    2.79446  -4.43023   0.21693 
 Bq                    2.93077  -4.43023   0.03894 
 Bq                    3.06709  -4.43023  -0.14251 
 Bq                    3.2034   -4.43023  -0.33163 
 Bq                    3.33972  -4.43023  -0.53078 
 Bq                    3.47603  -4.43023  -0.73795 
 Bq                    3.61235  -4.43023  -0.94722 
 Bq                    3.74866  -4.43023  -1.15331 
 Bq                    3.88498  -4.43023  -1.35702 
 Bq                    4.02129  -4.43023  -1.56596 
 Bq                    4.1576   -4.43023  -1.78752 
 Bq                    4.29392  -4.43023  -2.02005 
 Bq                    4.43023  -4.43023  -2.25298 
 Bq                    4.56655  -4.43023  -2.47895 
 Bq                    4.70286  -4.43023  -2.70473 
 Bq                   -4.70286  -4.29392   3.96882 
 Bq                   -4.56655  -4.29392   4.00073 
 Bq                   -4.43023  -4.29392   4.04019 
 Bq                   -4.29392  -4.29392   4.07948 
 Bq                   -4.1576   -4.29392   4.10713 
 Bq                   -4.02129  -4.29392   4.12188 
 Bq                   -3.88498  -4.29392   4.13233 
 Bq                   -3.74866  -4.29392   4.1463 
 Bq                   -3.61235  -4.29392   4.16333 
 Bq                   -3.47603  -4.29392   4.17676 
 Bq                   -3.33972  -4.29392   4.18059 
 Bq                   -3.2034   -4.29392   4.17416 
 Bq                   -3.06709  -4.29392   4.16144 
 Bq                   -2.93077  -4.29392   4.14726 
 Bq                   -2.79446  -4.29392   4.13405 
 Bq                   -2.65814  -4.29392   4.12096 
 Bq                   -2.52183  -4.29392   4.10522 
 Bq                   -2.38551  -4.29392   4.08401 
 Bq                   -2.2492   -4.29392   4.05577 
 Bq                   -2.11288  -4.29392   4.0205 
 Bq                   -1.97657  -4.29392   3.97924 
 Bq                   -1.84025  -4.29392   3.93344 
 Bq                   -1.70394  -4.29392   3.88427 
 Bq                   -1.56762  -4.29392   3.83244 
 Bq                   -1.43131  -4.29392   3.77813 
 Bq                   -1.29499  -4.29392   3.72113 
 Bq                   -1.15868  -4.29392   3.66106 
 Bq                   -1.02236  -4.29392   3.5975 
 Bq                   -0.88605  -4.29392   3.53012 
 Bq                   -0.74973  -4.29392   3.45865 
 Bq                   -0.61342  -4.29392   3.38295 
 Bq                   -0.4771   -4.29392   3.30296 
 Bq                   -0.34079  -4.29392   3.21865 
 Bq                   -0.20447  -4.29392   3.13003 
 Bq                   -0.06816  -4.29392   3.03714 
 Bq                    0.06816  -4.29392   2.93997 
 Bq                    0.20447  -4.29392   2.83853 
 Bq                    0.34079  -4.29392   2.7328 
 Bq                    0.4771   -4.29392   2.62277 
 Bq                    0.61342  -4.29392   2.50843 
 Bq                    0.74973  -4.29392   2.38979 
 Bq                    0.88605  -4.29392   2.26692 
 Bq                    1.02236  -4.29392   2.13996 
 Bq                    1.15868  -4.29392   2.00917 
 Bq                    1.29499  -4.29392   1.87489 
 Bq                    1.43131  -4.29392   1.73754 
 Bq                    1.56762  -4.29392   1.59751 
 Bq                    1.70394  -4.29392   1.45498 
 Bq                    1.84025  -4.29392   1.30979 
 Bq                    1.97657  -4.29392   1.16124 
 Bq                    2.11288  -4.29392   1.00814 
 Bq                    2.2492   -4.29392   0.84906 
 Bq                    2.38551  -4.29392   0.68293 
 Bq                    2.52183  -4.29392   0.50978 
 Bq                    2.65814  -4.29392   0.33115 
 Bq                    2.79446  -4.29392   0.14987 
 Bq                    2.93077  -4.29392  -0.03128 
 Bq                    3.06709  -4.29392  -0.21147 
 Bq                    3.2034   -4.29392  -0.39311 
 Bq                    3.33972  -4.29392  -0.58104 
 Bq                    3.47603  -4.29392  -0.77924 
 Bq                    3.61235  -4.29392  -0.98704 
 Bq                    3.74866  -4.29392  -1.19844 
 Bq                    3.88498  -4.29392  -1.40676 
 Bq                    4.02129  -4.29392  -1.61158 
 Bq                    4.1576   -4.29392  -1.82069 
 Bq                    4.29392  -4.29392  -2.0427 
 Bq                    4.43023  -4.29392  -2.27634 
 Bq                    4.56655  -4.29392  -2.51016 
 Bq                    4.70286  -4.29392  -2.73642 
 Bq                   -4.70286  -4.1576    3.73135 
 Bq                   -4.56655  -4.1576    3.77722 
 Bq                   -4.43023  -4.1576    3.82393 
 Bq                   -4.29392  -4.1576    3.85886 
 Bq                   -4.1576   -4.1576    3.88036 
 Bq                   -4.02129  -4.1576    3.89788 
 Bq                   -3.88498  -4.1576    3.91971 
 Bq                   -3.74866  -4.1576    3.94457 
 Bq                   -3.61235  -4.1576    3.96467 
 Bq                   -3.47603  -4.1576    3.97403 
 Bq                   -3.33972  -4.1576    3.97323 
 Bq                   -3.2034   -4.1576    3.96757 
 Bq                   -3.06709  -4.1576    3.96212 
 Bq                   -2.93077  -4.1576    3.95828 
 Bq                   -2.79446  -4.1576    3.95378 
 Bq                   -2.65814  -4.1576    3.94489 
 Bq                   -2.52183  -4.1576    3.92886 
 Bq                   -2.38551  -4.1576    3.905 
 Bq                   -2.2492   -4.1576    3.87442 
 Bq                   -2.11288  -4.1576    3.83904 
 Bq                   -1.97657  -4.1576    3.8006 
 Bq                   -1.84025  -4.1576    3.76008 
 Bq                   -1.70394  -4.1576    3.71769 
 Bq                   -1.56762  -4.1576    3.673 
 Bq                   -1.43131  -4.1576    3.62534 
 Bq                   -1.29499  -4.1576    3.57405 
 Bq                   -1.15868  -4.1576    3.5186 
 Bq                   -1.02236  -4.1576    3.4587 
 Bq                   -0.88605  -4.1576    3.39423 
 Bq                   -0.74973  -4.1576    3.32521 
 Bq                   -0.61342  -4.1576    3.25175 
 Bq                   -0.4771   -4.1576    3.17398 
 Bq                   -0.34079  -4.1576    3.092 
 Bq                   -0.20447  -4.1576    3.00594 
 Bq                   -0.06816  -4.1576    2.91584 
 Bq                    0.06816  -4.1576    2.82176 
 Bq                    0.20447  -4.1576    2.72368 
 Bq                    0.34079  -4.1576    2.62158 
 Bq                    0.4771   -4.1576    2.51539 
 Bq                    0.61342  -4.1576    2.405 
 Bq                    0.74973  -4.1576    2.29029 
 Bq                    0.88605  -4.1576    2.17113 
 Bq                    1.02236  -4.1576    2.04743 
 Bq                    1.15868  -4.1576    1.91916 
 Bq                    1.29499  -4.1576    1.78643 
 Bq                    1.43131  -4.1576    1.64954 
 Bq                    1.56762  -4.1576    1.50902 
 Bq                    1.70394  -4.1576    1.36552 
 Bq                    1.84025  -4.1576    1.21973 
 Bq                    1.97657  -4.1576    1.07206 
 Bq                    2.11288  -4.1576    0.92232 
 Bq                    2.2492   -4.1576    0.76951 
 Bq                    2.38551  -4.1576    0.6119 
 Bq                    2.52183  -4.1576    0.44756 
 Bq                    2.65814  -4.1576    0.27539 
 Bq                    2.79446  -4.1576    0.09609 
 Bq                    2.93077  -4.1576   -0.0876 
 Bq                    3.06709  -4.1576   -0.27196 
 Bq                    3.2034   -4.1576   -0.45471 
 Bq                    3.33972  -4.1576   -0.63725 
 Bq                    3.47603  -4.1576   -0.82465 
 Bq                    3.61235  -4.1576   -1.0222 
 Bq                    3.74866  -4.1576   -1.23049 
 Bq                    3.88498  -4.1576   -1.44355 
 Bq                    4.02129  -4.1576   -1.65357 
 Bq                    4.1576   -4.1576   -1.85928 
 Bq                    4.29392  -4.1576   -2.06897 
 Bq                    4.43023  -4.1576   -2.29208 
 Bq                    4.56655  -4.1576   -2.52698 
 Bq                    4.70286  -4.1576   -2.76103 
 Bq                   -4.70286  -4.02129   3.50762 
 Bq                   -4.56655  -4.02129   3.56178 
 Bq                   -4.43023  -4.02129   3.6047 
 Bq                   -4.29392  -4.02129   3.63335 
 Bq                   -4.1576   -4.02129   3.65762 
 Bq                   -4.02129  -4.02129   3.68669 
 Bq                   -3.88498  -4.02129   3.71906 
 Bq                   -3.74866  -4.02129   3.74599 
 Bq                   -3.61235  -4.02129   3.76136 
 Bq                   -3.47603  -4.02129   3.76671 
 Bq                   -3.33972  -4.02129   3.76843 
 Bq                   -3.2034   -4.02129   3.77161 
 Bq                   -3.06709  -4.02129   3.77661 
 Bq                   -2.93077  -4.02129   3.77985 
 Bq                   -2.79446  -4.02129   3.77704 
 Bq                   -2.65814  -4.02129   3.76589 
 Bq                   -2.52183  -4.02129   3.7468 
 Bq                   -2.38551  -4.02129   3.72197 
 Bq                   -2.2492   -4.02129   3.69386 
 Bq                   -2.11288  -4.02129   3.6641 
 Bq                   -1.97657  -4.02129   3.63308 
 Bq                   -1.84025  -4.02129   3.60027 
 Bq                   -1.70394  -4.02129   3.56462 
 Bq                   -1.56762  -4.02129   3.52513 
 Bq                   -1.43131  -4.02129   3.48104 
 Bq                   -1.29499  -4.02129   3.43199 
 Bq                   -1.15868  -4.02129   3.37792 
 Bq                   -1.02236  -4.02129   3.31898 
 Bq                   -0.88605  -4.02129   3.25543 
 Bq                   -0.74973  -4.02129   3.18752 
 Bq                   -0.61342  -4.02129   3.11549 
 Bq                   -0.4771   -4.02129   3.03951 
 Bq                   -0.34079  -4.02129   2.9597 
 Bq                   -0.20447  -4.02129   2.87612 
 Bq                   -0.06816  -4.02129   2.78883 
 Bq                    0.06816  -4.02129   2.69783 
 Bq                    0.20447  -4.02129   2.60312 
 Bq                    0.34079  -4.02129   2.5047 
 Bq                    0.4771   -4.02129   2.40252 
 Bq                    0.61342  -4.02129   2.2965 
 Bq                    0.74973  -4.02129   2.18653 
 Bq                    0.88605  -4.02129   2.07243 
 Bq                    1.02236  -4.02129   1.95398 
 Bq                    1.15868  -4.02129   1.83092 
 Bq                    1.29499  -4.02129   1.70298 
 Bq                    1.43131  -4.02129   1.57002 
 Bq                    1.56762  -4.02129   1.4321 
 Bq                    1.70394  -4.02129   1.28958 
 Bq                    1.84025  -4.02129   1.14321 
 Bq                    1.97657  -4.02129   0.99401 
 Bq                    2.11288  -4.02129   0.843 
 Bq                    2.2492   -4.02129   0.69075 
 Bq                    2.38551  -4.02129   0.53684 
 Bq                    2.52183  -4.02129   0.37964 
 Bq                    2.65814  -4.02129   0.21671 
 Bq                    2.79446  -4.02129   0.04584 
 Bq                    2.93077  -4.02129  -0.13339 
 Bq                    3.06709  -4.02129  -0.31865 
 Bq                    3.2034   -4.02129  -0.50567 
 Bq                    3.33972  -4.02129  -0.69088 
 Bq                    3.47603  -4.02129  -0.87463 
 Bq                    3.61235  -4.02129  -1.06201 
 Bq                    3.74866  -4.02129  -1.2594 
 Bq                    3.88498  -4.02129  -1.46836 
 Bq                    4.02129  -4.02129  -1.68274 
 Bq                    4.1576   -4.02129  -1.89384 
 Bq                    4.29392  -4.02129  -2.10013 
 Bq                    4.43023  -4.02129  -2.31079 
 Bq                    4.56655  -4.02129  -2.53573 
 Bq                    4.70286  -4.02129  -2.77191 
 Bq                   -4.70286  -3.88498   3.29291 
 Bq                   -4.56655  -3.88498   3.34452 
 Bq                   -4.43023  -3.88498   3.38085 
 Bq                   -4.29392  -3.88498   3.41155 
 Bq                   -4.1576   -3.88498   3.44719 
 Bq                   -4.02129  -3.88498   3.48681 
 Bq                   -3.88498  -3.88498   3.52091 
 Bq                   -3.74866  -3.88498   3.54285 
 Bq                   -3.61235  -3.88498   3.55471 
 Bq                   -3.47603  -3.88498   3.56378 
 Bq                   -3.33972  -3.88498   3.57524 
 Bq                   -3.2034   -3.88498   3.58852 
 Bq                   -3.06709  -3.88498   3.59897 
 Bq                   -2.93077  -3.88498   3.60197 
 Bq                   -2.79446  -3.88498   3.59588 
 Bq                   -2.65814  -3.88498   3.58226 
 Bq                   -2.52183  -3.88498   3.56418 
 Bq                   -2.38551  -3.88498   3.54431 
 Bq                   -2.2492   -3.88498   3.5238 
 Bq                   -2.11288  -3.88498   3.50221 
 Bq                   -1.97657  -3.88498   3.47823 
 Bq                   -1.84025  -3.88498   3.45037 
 Bq                   -1.70394  -3.88498   3.41751 
 Bq                   -1.56762  -3.88498   3.37914 
 Bq                   -1.43131  -3.88498   3.33524 
 Bq                   -1.29499  -3.88498   3.28614 
 Bq                   -1.15868  -3.88498   3.23229 
 Bq                   -1.02236  -3.88498   3.17413 
 Bq                   -0.88605  -3.88498   3.11199 
 Bq                   -0.74973  -3.88498   3.04608 
 Bq                   -0.61342  -3.88498   2.97652 
 Bq                   -0.4771   -3.88498   2.90334 
 Bq                   -0.34079  -3.88498   2.82652 
 Bq                   -0.20447  -3.88498   2.74603 
 Bq                   -0.06816  -3.88498   2.66184 
 Bq                    0.06816  -3.88498   2.57392 
 Bq                    0.20447  -3.88498   2.48229 
 Bq                    0.34079  -3.88498   2.38695 
 Bq                    0.4771   -3.88498   2.28794 
 Bq                    0.61342  -3.88498   2.1853 
 Bq                    0.74973  -3.88498   2.07902 
 Bq                    0.88605  -3.88498   1.9691 
 Bq                    1.02236  -3.88498   1.85541 
 Bq                    1.15868  -3.88498   1.73774 
 Bq                    1.29499  -3.88498   1.61575 
 Bq                    1.43131  -3.88498   1.48901 
 Bq                    1.56762  -3.88498   1.35706 
 Bq                    1.70394  -3.88498   1.21959 
 Bq                    1.84025  -3.88498   1.0766 
 Bq                    1.97657  -3.88498   0.92862 
 Bq                    2.11288  -3.88498   0.77675 
 Bq                    2.2492   -3.88498   0.62249 
 Bq                    2.38551  -3.88498   0.46715 
 Bq                    2.52183  -3.88498   0.31117 
 Bq                    2.65814  -3.88498   0.15339 
 Bq                    2.79446  -3.88498  -0.00884 
 Bq                    2.93077  -3.88498  -0.17861 
 Bq                    3.06709  -3.88498  -0.35747 
 Bq                    3.2034   -3.88498  -0.54377 
 Bq                    3.33972  -3.88498  -0.73291 
 Bq                    3.47603  -3.88498  -0.92023 
 Bq                    3.61235  -3.88498  -1.10515 
 Bq                    3.74866  -3.88498  -1.29287 
 Bq                    3.88498  -3.88498  -1.49066 
 Bq                    4.02129  -3.88498  -1.70062 
 Bq                    4.1576   -3.88498  -1.91608 
 Bq                    4.29392  -3.88498  -2.12757 
 Bq                    4.43023  -3.88498  -2.33412 
 Bq                    4.56655  -3.88498  -2.5463 
 Bq                    4.70286  -3.88498  -2.77375 
 Bq                   -4.70286  -3.74866   3.07804 
 Bq                   -4.56655  -3.74866   3.12282 
 Bq                   -4.43023  -3.74866   3.15979 
 Bq                   -4.29392  -3.74866   3.20127 
 Bq                   -4.1576   -3.74866   3.24782 
 Bq                   -4.02129  -3.74866   3.2895 
 Bq                   -3.88498  -3.74866   3.31861 
 Bq                   -3.74866  -3.74866   3.33722 
 Bq                   -3.61235  -3.74866   3.3534 
 Bq                   -3.47603  -3.74866   3.37265 
 Bq                   -3.33972  -3.74866   3.39378 
 Bq                   -3.2034   -3.74866   3.41123 
 Bq                   -3.06709  -3.74866   3.42013 
 Bq                   -2.93077  -3.74866   3.41953 
 Bq                   -2.79446  -3.74866   3.41202 
 Bq                   -2.65814  -3.74866   3.40138 
 Bq                   -2.52183  -3.74866   3.39017 
 Bq                   -2.38551  -3.74866   3.37884 
 Bq                   -2.2492   -3.74866   3.36607 
 Bq                   -2.11288  -3.74866   3.34987 
 Bq                   -1.97657  -3.74866   3.32856 
 Bq                   -1.84025  -3.74866   3.30124 
 Bq                   -1.70394  -3.74866   3.26783 
 Bq                   -1.56762  -3.74866   3.22882 
 Bq                   -1.43131  -3.74866   3.18494 
 Bq                   -1.29499  -3.74866   3.13686 
 Bq                   -1.15868  -3.74866   3.08508 
 Bq                   -1.02236  -3.74866   3.02986 
 Bq                   -0.88605  -3.74866   2.97128 
 Bq                   -0.74973  -3.74866   2.9093 
 Bq                   -0.61342  -3.74866   2.84379 
 Bq                   -0.4771   -3.74866   2.77462 
 Bq                   -0.34079  -3.74866   2.70166 
 Bq                   -0.20447  -3.74866   2.6248 
 Bq                   -0.06816  -3.74866   2.54398 
 Bq                    0.06816  -3.74866   2.45915 
 Bq                    0.20447  -3.74866   2.37032 
 Bq                    0.34079  -3.74866   2.27752 
 Bq                    0.4771   -3.74866   2.18082 
 Bq                    0.61342  -3.74866   2.08033 
 Bq                    0.74973  -3.74866   1.97618 
 Bq                    0.88605  -3.74866   1.8685 
 Bq                    1.02236  -3.74866   1.75741 
 Bq                    1.15868  -3.74866   1.64297 
 Bq                    1.29499  -3.74866   1.52508 
 Bq                    1.43131  -3.74866   1.40349 
 Bq                    1.56762  -3.74866   1.2777 
 Bq                    1.70394  -3.74866   1.14703 
 Bq                    1.84025  -3.74866   1.01077 
 Bq                    1.97657  -3.74866   0.86842 
 Bq                    2.11288  -3.74866   0.72005 
 Bq                    2.2492   -3.74866   0.56656 
 Bq                    2.38551  -3.74866   0.40965 
 Bq                    2.52183  -3.74866   0.2513 
 Bq                    2.65814  -3.74866   0.09282 
 Bq                    2.79446  -3.74866  -0.06622 
 Bq                    2.93077  -3.74866  -0.2284 
 Bq                    3.06709  -3.74866  -0.39748 
 Bq                    3.2034   -3.74866  -0.57608 
 Bq                    3.33972  -3.74866  -0.76321 
 Bq                    3.47603  -3.74866  -0.95402 
 Bq                    3.61235  -3.74866  -1.14296 
 Bq                    3.74866  -3.74866  -1.32882 
 Bq                    3.88498  -3.74866  -1.51712 
 Bq                    4.02129  -3.74866  -1.71591 
 Bq                    4.1576   -3.74866  -1.92727 
 Bq                    4.29392  -3.74866  -2.1435 
 Bq                    4.43023  -3.74866  -2.35466 
 Bq                    4.56655  -3.74866  -2.5613 
 Bq                    4.70286  -3.74866  -2.77576 
 Bq                   -4.70286  -3.61235   2.85911 
 Bq                   -4.56655  -3.61235   2.90255 
 Bq                   -4.43023  -3.61235   2.94911 
 Bq                   -4.29392  -3.61235   3.00208 
 Bq                   -4.1576   -3.61235   3.05169 
 Bq                   -4.02129  -3.61235   3.08864 
 Bq                   -3.88498  -3.61235   3.11424 
 Bq                   -3.74866  -3.61235   3.13717 
 Bq                   -3.61235  -3.61235   3.16366 
 Bq                   -3.47603  -3.61235   3.19231 
 Bq                   -3.33972  -3.61235   3.21679 
 Bq                   -3.2034   -3.61235   3.23194 
 Bq                   -3.06709  -3.61235   3.23729 
 Bq                   -2.93077  -3.61235   3.23635 
 Bq                   -2.79446  -3.61235   3.23342 
 Bq                   -2.65814  -3.61235   3.23085 
 Bq                   -2.52183  -3.61235   3.2283 
 Bq                   -2.38551  -3.61235   3.22361 
 Bq                   -2.2492   -3.61235   3.21432 
 Bq                   -2.11288  -3.61235   3.19878 
 Bq                   -1.97657  -3.61235   3.17653 
 Bq                   -1.84025  -3.61235   3.14812 
 Bq                   -1.70394  -3.61235   3.11455 
 Bq                   -1.56762  -3.61235   3.07684 
 Bq                   -1.43131  -3.61235   3.03573 
 Bq                   -1.29499  -3.61235   2.99162 
 Bq                   -1.15868  -3.61235   2.94456 
 Bq                   -1.02236  -3.61235   2.89441 
 Bq                   -0.88605  -3.61235   2.84092 
 Bq                   -0.74973  -3.61235   2.78384 
 Bq                   -0.61342  -3.61235   2.72292 
 Bq                   -0.4771   -3.61235   2.658 
 Bq                   -0.34079  -3.61235   2.58895 
 Bq                   -0.20447  -3.61235   2.51571 
 Bq                   -0.06816  -3.61235   2.43823 
 Bq                    0.06816  -3.61235   2.35648 
 Bq                    0.20447  -3.61235   2.27048 
 Bq                    0.34079  -3.61235   2.18023 
 Bq                    0.4771   -3.61235   2.08579 
 Bq                    0.61342  -3.61235   1.98722 
 Bq                    0.74973  -3.61235   1.88465 
 Bq                    0.88605  -3.61235   1.77824 
 Bq                    1.02236  -3.61235   1.66824 
 Bq                    1.15868  -3.61235   1.55489 
 Bq                    1.29499  -3.61235   1.43845 
 Bq                    1.43131  -3.61235   1.31907 
 Bq                    1.56762  -3.61235   1.19667 
 Bq                    1.70394  -3.61235   1.07088 
 Bq                    1.84025  -3.61235   0.94095 
 Bq                    1.97657  -3.61235   0.80585 
 Bq                    2.11288  -3.61235   0.66458 
 Bq                    2.2492   -3.61235   0.51662 
 Bq                    2.38551  -3.61235   0.3624 
 Bq                    2.52183  -3.61235   0.20357 
 Bq                    2.65814  -3.61235   0.04261 
 Bq                    2.79446  -3.61235  -0.11834 
 Bq                    2.93077  -3.61235  -0.27892 
 Bq                    3.06709  -3.61235  -0.4415 
 Bq                    3.2034   -3.61235  -0.61037 
 Bq                    3.33972  -3.61235  -0.78903 
 Bq                    3.47603  -3.61235  -0.97703 
 Bq                    3.61235  -3.61235  -1.1692 
 Bq                    3.74866  -3.61235  -1.3592 
 Bq                    3.88498  -3.61235  -1.54564 
 Bq                    4.02129  -3.61235  -1.73476 
 Bq                    4.1576   -3.61235  -1.93522 
 Bq                    4.29392  -3.61235  -2.14834 
 Bq                    4.43023  -3.61235  -2.36481 
 Bq                    4.56655  -3.61235  -2.57489 
 Bq                    4.70286  -3.61235  -2.78183 
 Bq                   -4.70286  -3.47603   2.64003 
 Bq                   -4.56655  -3.47603   2.69106 
 Bq                   -4.43023  -3.47603   2.74963 
 Bq                   -4.29392  -3.47603   2.80729 
 Bq                   -4.1576   -3.47603   2.85283 
 Bq                   -4.02129  -3.47603   2.88578 
 Bq                   -3.88498  -3.47603   2.91509 
 Bq                   -3.74866  -3.47603   2.9482 
 Bq                   -3.61235  -3.47603   2.98409 
 Bq                   -3.47603  -3.47603   3.01582 
 Bq                   -3.33972  -3.47603   3.03767 
 Bq                   -3.2034   -3.47603   3.0494 
 Bq                   -3.06709  -3.47603   3.05525 
 Bq                   -2.93077  -3.47603   3.05999 
 Bq                   -2.79446  -3.47603   3.06579 
 Bq                   -2.65814  -3.47603   3.07154 
 Bq                   -2.52183  -3.47603   3.07434 
 Bq                   -2.38551  -3.47603   3.07142 
 Bq                   -2.2492   -3.47603   3.06137 
 Bq                   -2.11288  -3.47603   3.04431 
 Bq                   -1.97657  -3.47603   3.02142 
 Bq                   -1.84025  -3.47603   2.99414 
 Bq                   -1.70394  -3.47603   2.96365 
 Bq                   -1.56762  -3.47603   2.93058 
 Bq                   -1.43131  -3.47603   2.89505 
 Bq                   -1.29499  -3.47603   2.85681 
 Bq                   -1.15868  -3.47603   2.81546 
 Bq                   -1.02236  -3.47603   2.77057 
 Bq                   -0.88605  -3.47603   2.72179 
 Bq                   -0.74973  -3.47603   2.66888 
 Bq                   -0.61342  -3.47603   2.61171 
 Bq                   -0.4771   -3.47603   2.55023 
 Bq                   -0.34079  -3.47603   2.48442 
 Bq                   -0.20447  -3.47603   2.41431 
 Bq                   -0.06816  -3.47603   2.33991 
 Bq                    0.06816  -3.47603   2.26125 
 Bq                    0.20447  -3.47603   2.17833 
 Bq                    0.34079  -3.47603   2.09112 
 Bq                    0.4771   -3.47603   1.99961 
 Bq                    0.61342  -3.47603   1.90378 
 Bq                    0.74973  -3.47603   1.80363 
 Bq                    0.88605  -3.47603   1.69921 
 Bq                    1.02236  -3.47603   1.59067 
 Bq                    1.15868  -3.47603   1.47823 
 Bq                    1.29499  -3.47603   1.36226 
 Bq                    1.43131  -3.47603   1.24317 
 Bq                    1.56762  -3.47603   1.12137 
 Bq                    1.70394  -3.47603   0.99711 
 Bq                    1.84025  -3.47603   0.87026 
 Bq                    1.97657  -3.47603   0.7402 
 Bq                    2.11288  -3.47603   0.60575 
 Bq                    2.2492   -3.47603   0.46547 
 Bq                    2.38551  -3.47603   0.31818 
 Bq                    2.52183  -3.47603   0.16376 
 Bq                    2.65814  -3.47603   0.00361 
 Bq                    2.79446  -3.47603  -0.15949 
 Bq                    2.93077  -3.47603  -0.32263 
 Bq                    3.06709  -3.47603  -0.48472 
 Bq                    3.2034   -3.47603  -0.64792 
 Bq                    3.33972  -3.47603  -0.81699 
 Bq                    3.47603  -3.47603  -0.99619 
 Bq                    3.61235  -3.47603  -1.18527 
 Bq                    3.74866  -3.47603  -1.3785 
 Bq                    3.88498  -3.47603  -1.56895 
 Bq                    4.02129  -3.47603  -1.75561 
 Bq                    4.1576   -3.47603  -1.9459 
 Bq                    4.29392  -3.47603  -2.14878 
 Bq                    4.43023  -3.47603  -2.36377 
 Bq                    4.56655  -3.47603  -2.57968 
 Bq                    4.70286  -3.47603  -2.78805 
 Bq                   -4.70286  -3.33972   2.42762 
 Bq                   -4.56655  -3.33972   2.49066 
 Bq                   -4.43023  -3.33972   2.55606 
 Bq                   -4.29392  -3.33972   2.61091 
 Bq                   -4.1576   -3.33972   2.65182 
 Bq                   -4.02129  -3.33972   2.68728 
 Bq                   -3.88498  -3.33972   2.72634 
 Bq                   -3.74866  -3.33972   2.76912 
 Bq                   -3.61235  -3.33972   2.80836 
 Bq                   -3.47603  -3.33972   2.83746 
 Bq                   -3.33972  -3.33972   2.85596 
 Bq                   -3.2034   -3.33972   2.86863 
 Bq                   -3.06709  -3.33972   2.88079 
 Bq                   -2.93077  -3.33972   2.89455 
 Bq                   -2.79446  -3.33972   2.90819 
 Bq                   -2.65814  -3.33972   2.91816 
 Bq                   -2.52183  -3.33972   2.92146 
 Bq                   -2.38551  -3.33972   2.91698 
 Bq                   -2.2492   -3.33972   2.90549 
 Bq                   -2.11288  -3.33972   2.88876 
 Bq                   -1.97657  -3.33972   2.86856 
 Bq                   -1.84025  -3.33972   2.84605 
 Bq                   -1.70394  -3.33972   2.82159 
 Bq                   -1.56762  -3.33972   2.79493 
 Bq                   -1.43131  -3.33972   2.76546 
 Bq                   -1.29499  -3.33972   2.73254 
 Bq                   -1.15868  -3.33972   2.69562 
 Bq                   -1.02236  -3.33972   2.65437 
 Bq                   -0.88605  -3.33972   2.60861 
 Bq                   -0.74973  -3.33972   2.55834 
 Bq                   -0.61342  -3.33972   2.50361 
 Bq                   -0.4771   -3.33972   2.44453 
 Bq                   -0.34079  -3.33972   2.38122 
 Bq                   -0.20447  -3.33972   2.31376 
 Bq                   -0.06816  -3.33972   2.24223 
 Bq                    0.06816  -3.33972   2.16666 
 Bq                    0.20447  -3.33972   2.08704 
 Bq                    0.34079  -3.33972   2.00335 
 Bq                    0.4771   -3.33972   1.91551 
 Bq                    0.61342  -3.33972   1.82344 
 Bq                    0.74973  -3.33972   1.72702 
 Bq                    0.88605  -3.33972   1.62614 
 Bq                    1.02236  -3.33972   1.52074 
 Bq                    1.15868  -3.33972   1.41084 
 Bq                    1.29499  -3.33972   1.2966 
 Bq                    1.43131  -3.33972   1.17836 
 Bq                    1.56762  -3.33972   1.05667 
 Bq                    1.70394  -3.33972   0.93217 
 Bq                    1.84025  -3.33972   0.80546 
 Bq                    1.97657  -3.33972   0.67681 
 Bq                    2.11288  -3.33972   0.54584 
 Bq                    2.2492   -3.33972   0.4114 
 Bq                    2.38551  -3.33972   0.27171 
 Bq                    2.52183  -3.33972   0.12502 
 Bq                    2.65814  -3.33972  -0.02945 
 Bq                    2.79446  -3.33972  -0.1906 
 Bq                    2.93077  -3.33972  -0.35542 
 Bq                    3.06709  -3.33972  -0.52035 
 Bq                    3.2034   -3.33972  -0.6837 
 Bq                    3.33972  -3.33972  -0.84755 
 Bq                    3.47603  -3.33972  -1.01722 
 Bq                    3.61235  -3.33972  -1.19749 
 Bq                    3.74866  -3.33972  -1.38791 
 Bq                    3.88498  -3.33972  -1.58186 
 Bq                    4.02129  -3.33972  -1.77209 
 Bq                    4.1576   -3.33972  -1.95873 
 Bq                    4.29392  -3.33972  -2.1508 
 Bq                    4.43023  -3.33972  -2.35683 
 Bq                    4.56655  -3.33972  -2.57339 
 Bq                    4.70286  -3.33972  -2.78759 
 Bq                   -4.70286  -3.2034    2.2256 
 Bq                   -4.56655  -3.2034    2.29778 
 Bq                   -4.43023  -3.2034    2.36248 
 Bq                   -4.29392  -3.2034    2.41228 
 Bq                   -4.1576   -3.2034    2.45396 
 Bq                   -4.02129  -3.2034    2.49827 
 Bq                   -3.88498  -3.2034    2.54743 
 Bq                   -3.74866  -3.2034    2.59437 
 Bq                   -3.61235  -3.2034    2.63131 
 Bq                   -3.47603  -3.2034    2.65699 
 Bq                   -3.33972  -3.2034    2.67643 
 Bq                   -3.2034   -3.2034    2.69562 
 Bq                   -3.06709  -3.2034    2.71689 
 Bq                   -2.93077  -3.2034    2.73813 
 Bq                   -2.79446  -3.2034    2.75518 
 Bq                   -2.65814  -3.2034    2.76481 
 Bq                   -2.52183  -3.2034    2.7662 
 Bq                   -2.38551  -3.2034    2.76071 
 Bq                   -2.2492   -3.2034    2.75066 
 Bq                   -2.11288  -3.2034    2.73803 
 Bq                   -1.97657  -3.2034    2.72385 
 Bq                   -1.84025  -3.2034    2.7081 
 Bq                   -1.70394  -3.2034    2.69009 
 Bq                   -1.56762  -3.2034    2.66889 
 Bq                   -1.43131  -3.2034    2.64365 
 Bq                   -1.29499  -3.2034    2.61383 
 Bq                   -1.15868  -3.2034    2.57918 
 Bq                   -1.02236  -3.2034    2.53968 
 Bq                   -0.88605  -3.2034    2.49548 
 Bq                   -0.74973  -3.2034    2.44679 
 Bq                   -0.61342  -3.2034    2.39381 
 Bq                   -0.4771   -3.2034    2.33674 
 Bq                   -0.34079  -3.2034    2.27571 
 Bq                   -0.20447  -3.2034    2.21081 
 Bq                   -0.06816  -3.2034    2.1421 
 Bq                    0.06816  -3.2034    2.06961 
 Bq                    0.20447  -3.2034    1.99334 
 Bq                    0.34079  -3.2034    1.91326 
 Bq                    0.4771   -3.2034    1.82932 
 Bq                    0.61342  -3.2034    1.74141 
 Bq                    0.74973  -3.2034    1.6494 
 Bq                    0.88605  -3.2034    1.55311 
 Bq                    1.02236  -3.2034    1.45233 
 Bq                    1.15868  -3.2034    1.34684 
 Bq                    1.29499  -3.2034    1.23651 
 Bq                    1.43131  -3.2034    1.12134 
 Bq                    1.56762  -3.2034    1.00158 
 Bq                    1.70394  -3.2034    0.8778 
 Bq                    1.84025  -3.2034    0.75081 
 Bq                    1.97657  -3.2034    0.62156 
 Bq                    2.11288  -3.2034    0.49074 
 Bq                    2.2492   -3.2034    0.35837 
 Bq                    2.38551  -3.2034    0.22342 
 Bq                    2.52183  -3.2034    0.0839 
 Bq                    2.65814  -3.2034   -0.06249 
 Bq                    2.79446  -3.2034   -0.21713 
 Bq                    2.93077  -3.2034   -0.37919 
 Bq                    3.06709  -3.2034   -0.54543 
 Bq                    3.2034   -3.2034   -0.71171 
 Bq                    3.33972  -3.2034   -0.87591 
 Bq                    3.47603  -3.2034   -1.04036 
 Bq                    3.61235  -3.2034   -1.21104 
 Bq                    3.74866  -3.2034   -1.39299 
 Bq                    3.88498  -3.2034   -1.58494 
 Bq                    4.02129  -3.2034   -1.7791 
 Bq                    4.1576   -3.2034   -1.9684 
 Bq                    4.29392  -3.2034   -2.15508 
 Bq                    4.43023  -3.2034   -2.34989 
 Bq                    4.56655  -3.2034   -2.55958 
 Bq                    4.70286  -3.2034   -2.77675 
 Bq                   -4.70286  -3.06709   2.03248 
 Bq                   -4.56655  -3.06709   2.10695 
 Bq                   -4.43023  -3.06709   2.16686 
 Bq                   -4.29392  -3.06709   2.21537 
 Bq                   -4.1576   -3.06709   2.26432 
 Bq                   -4.02129  -3.06709   2.31907 
 Bq                   -3.88498  -3.06709   2.37368 
 Bq                   -3.74866  -3.06709   2.41909 
 Bq                   -3.61235  -3.06709   2.45247 
 Bq                   -3.47603  -3.06709   2.47865 
 Bq                   -3.33972  -3.06709   2.5044 
 Bq                   -3.2034   -3.06709   2.5327 
 Bq                   -3.06709  -3.06709   2.56132 
 Bq                   -2.93077  -3.06709   2.58556 
 Bq                   -2.79446  -3.06709   2.60181 
 Bq                   -2.65814  -3.06709   2.60943 
 Bq                   -2.52183  -3.06709   2.6103 
 Bq                   -2.38551  -3.06709   2.60721 
 Bq                   -2.2492   -3.06709   2.60234 
 Bq                   -2.11288  -3.06709   2.59649 
 Bq                   -1.97657  -3.06709   2.58924 
 Bq                   -1.84025  -3.06709   2.57945 
 Bq                   -1.70394  -3.06709   2.56589 
 Bq                   -1.56762  -3.06709   2.54761 
 Bq                   -1.43131  -3.06709   2.52416 
 Bq                   -1.29499  -3.06709   2.49545 
 Bq                   -1.15868  -3.06709   2.46168 
 Bq                   -1.02236  -3.06709   2.4232 
 Bq                   -0.88605  -3.06709   2.38032 
 Bq                   -0.74973  -3.06709   2.33334 
 Bq                   -0.61342  -3.06709   2.28246 
 Bq                   -0.4771   -3.06709   2.22779 
 Bq                   -0.34079  -3.06709   2.16941 
 Bq                   -0.20447  -3.06709   2.10736 
 Bq                   -0.06816  -3.06709   2.04162 
 Bq                    0.06816  -3.06709   1.97222 
 Bq                    0.20447  -3.06709   1.89914 
 Bq                    0.34079  -3.06709   1.82239 
 Bq                    0.4771   -3.06709   1.74196 
 Bq                    0.61342  -3.06709   1.65782 
 Bq                    0.74973  -3.06709   1.56989 
 Bq                    0.88605  -3.06709   1.47806 
 Bq                    1.02236  -3.06709   1.38212 
 Bq                    1.15868  -3.06709   1.28179 
 Bq                    1.29499  -3.06709   1.17673 
 Bq                    1.43131  -3.06709   1.06663 
 Bq                    1.56762  -3.06709   0.95126 
 Bq                    1.70394  -3.06709   0.83071 
 Bq                    1.84025  -3.06709   0.70545 
 Bq                    1.97657  -3.06709   0.57642 
 Bq                    2.11288  -3.06709   0.44484 
 Bq                    2.2492   -3.06709   0.31185 
 Bq                    2.38551  -3.06709   0.17789 
 Bq                    2.52183  -3.06709   0.04215 
 Bq                    2.65814  -3.06709  -0.09756 
 Bq                    2.79446  -3.06709  -0.24401 
 Bq                    2.93077  -3.06709  -0.39911 
 Bq                    3.06709  -3.06709  -0.56218 
 Bq                    3.2034   -3.06709  -0.72964 
 Bq                    3.33972  -3.06709  -0.89677 
 Bq                    3.47603  -3.06709  -1.06137 
 Bq                    3.61235  -3.06709  -1.22638 
 Bq                    3.74866  -3.06709  -1.3986 
 Bq                    3.88498  -3.06709  -1.58283 
 Bq                    4.02129  -3.06709  -1.77628 
 Bq                    4.1576   -3.06709  -1.96986 
 Bq                    4.29392  -3.06709  -2.15764 
 Bq                    4.43023  -3.06709  -2.34497 
 Bq                    4.56655  -3.06709  -2.54372 
 Bq                    4.70286  -3.06709  -2.75701 
 Bq                   -4.70286  -2.93077   1.84378 
 Bq                   -4.56655  -2.93077   1.91495 
 Bq                   -4.43023  -2.93077   1.9716 
 Bq                   -4.29392  -2.93077   2.02501 
 Bq                   -4.1576   -2.93077   2.0843 
 Bq                   -4.02129  -2.93077   2.14613 
 Bq                   -3.88498  -2.93077   2.2005 
 Bq                   -3.74866  -2.93077   2.2423 
 Bq                   -3.61235  -2.93077   2.27535 
 Bq                   -3.47603  -2.93077   2.30721 
 Bq                   -3.33972  -2.93077   2.34198 
 Bq                   -3.2034   -2.93077   2.37776 
 Bq                   -3.06709  -2.93077   2.40937 
 Bq                   -2.93077  -2.93077   2.43267 
 Bq                   -2.79446  -2.93077   2.44691 
 Bq                   -2.65814  -2.93077   2.45438 
 Bq                   -2.52183  -2.93077   2.45833 
 Bq                   -2.38551  -2.93077   2.46113 
 Bq                   -2.2492   -2.93077   2.46341 
 Bq                   -2.11288  -2.93077   2.46433 
 Bq                   -1.97657  -2.93077   2.46232 
 Bq                   -1.84025  -2.93077   2.45589 
 Bq                   -1.70394  -2.93077   2.4441 
 Bq                   -1.56762  -2.93077   2.42661 
 Bq                   -1.43131  -2.93077   2.4036 
 Bq                   -1.29499  -2.93077   2.37552 
 Bq                   -1.15868  -2.93077   2.34287 
 Bq                   -1.02236  -2.93077   2.30609 
 Bq                   -0.88605  -2.93077   2.26549 
 Bq                   -0.74973  -2.93077   2.22123 
 Bq                   -0.61342  -2.93077   2.17338 
 Bq                   -0.4771   -2.93077   2.12193 
 Bq                   -0.34079  -2.93077   2.06683 
 Bq                   -0.20447  -2.93077   2.00803 
 Bq                   -0.06816  -2.93077   1.94548 
 Bq                    0.06816  -2.93077   1.87916 
 Bq                    0.20447  -2.93077   1.80907 
 Bq                    0.34079  -2.93077   1.73523 
 Bq                    0.4771   -2.93077   1.65769 
 Bq                    0.61342  -2.93077   1.5765 
 Bq                    0.74973  -2.93077   1.49171 
 Bq                    0.88605  -2.93077   1.40333 
 Bq                    1.02236  -2.93077   1.31129 
 Bq                    1.15868  -2.93077   1.21542 
 Bq                    1.29499  -2.93077   1.11542 
 Bq                    1.43131  -2.93077   1.01085 
 Bq                    1.56762  -2.93077   0.90121 
 Bq                    1.70394  -2.93077   0.78605 
 Bq                    1.84025  -2.93077   0.66519 
 Bq                    1.97657  -2.93077   0.53895 
 Bq                    2.11288  -2.93077   0.40831 
 Bq                    2.2492   -2.93077   0.27473 
 Bq                    2.38551  -2.93077   0.13978 
 Bq                    2.52183  -2.93077   0.00431 
 Bq                    2.65814  -2.93077  -0.1323 
 Bq                    2.79446  -2.93077  -0.27243 
 Bq                    2.93077  -2.93077  -0.41934 
 Bq                    3.06709  -2.93077  -0.5753 
 Bq                    3.2034   -2.93077  -0.73959 
 Bq                    3.33972  -2.93077  -0.90803 
 Bq                    3.47603  -2.93077  -1.07547 
 Bq                    3.61235  -2.93077  -1.23999 
 Bq                    3.74866  -2.93077  -1.40571 
 Bq                    3.88498  -2.93077  -1.58017 
 Bq                    4.02129  -2.93077  -1.76721 
 Bq                    4.1576   -2.93077  -1.9617 
 Bq                    4.29392  -2.93077  -2.15365 
 Bq                    4.43023  -2.93077  -2.33972 
 Bq                    4.56655  -2.93077  -2.52902 
 Bq                    4.70286  -2.93077  -2.73284 
 Bq                   -4.70286  -2.79446   1.65561 
 Bq                   -4.56655  -2.79446   1.72236 
 Bq                   -4.43023  -2.79446   1.78088 
 Bq                   -4.29392  -2.79446   1.84362 
 Bq                   -4.1576   -2.79446   1.91162 
 Bq                   -4.02129  -2.79446   1.97515 
 Bq                   -3.88498  -2.79446   2.02624 
 Bq                   -3.74866  -2.79446   2.06662 
 Bq                   -3.61235  -2.79446   2.10425 
 Bq                   -3.47603  -2.79446   2.14483 
 Bq                   -3.33972  -2.79446   2.18745 
 Bq                   -3.2034   -2.79446   2.22664 
 Bq                   -3.06709  -2.79446   2.25746 
 Bq                   -2.93077  -2.79446   2.27874 
 Bq                   -2.79446  -2.79446   2.29296 
 Bq                   -2.65814  -2.79446   2.30385 
 Bq                   -2.52183  -2.79446   2.31407 
 Bq                   -2.38551  -2.79446   2.32418 
 Bq                   -2.2492   -2.79446   2.33295 
 Bq                   -2.11288  -2.79446   2.33841 
 Bq                   -1.97657  -2.79446   2.33885 
 Bq                   -1.84025  -2.79446   2.33334 
 Bq                   -1.70394  -2.79446   2.32174 
 Bq                   -1.56762  -2.79446   2.30451 
 Bq                   -1.43131  -2.79446   2.28236 
 Bq                   -1.29499  -2.79446   2.25595 
 Bq                   -1.15868  -2.79446   2.22579 
 Bq                   -1.02236  -2.79446   2.19217 
 Bq                   -0.88605  -2.79446   2.15517 
 Bq                   -0.74973  -2.79446   2.11475 
 Bq                   -0.61342  -2.79446   2.07081 
 Bq                   -0.4771   -2.79446   2.02321 
 Bq                   -0.34079  -2.79446   1.97183 
 Bq                   -0.20447  -2.79446   1.91655 
 Bq                   -0.06816  -2.79446   1.85731 
 Bq                    0.06816  -2.79446   1.79408 
 Bq                    0.20447  -2.79446   1.72685 
 Bq                    0.34079  -2.79446   1.65566 
 Bq                    0.4771   -2.79446   1.58057 
 Bq                    0.61342  -2.79446   1.5017 
 Bq                    0.74973  -2.79446   1.41917 
 Bq                    0.88605  -2.79446   1.33311 
 Bq                    1.02236  -2.79446   1.24364 
 Bq                    1.15868  -2.79446   1.15079 
 Bq                    1.29499  -2.79446   1.05447 
 Bq                    1.43131  -2.79446   0.95439 
 Bq                    1.56762  -2.79446   0.85007 
 Bq                    1.70394  -2.79446   0.74081 
 Bq                    1.84025  -2.79446   0.62592 
 Bq                    1.97657  -2.79446   0.50495 
 Bq                    2.11288  -2.79446   0.37802 
 Bq                    2.2492   -2.79446   0.24607 
 Bq                    2.38551  -2.79446   0.11081 
 Bq                    2.52183  -2.79446  -0.0258 
 Bq                    2.65814  -2.79446  -0.16252 
 Bq                    2.79446  -2.79446  -0.2999 
 Bq                    2.93077  -2.79446  -0.44062 
 Bq                    3.06709  -2.79446  -0.5884 
 Bq                    3.2034   -2.79446  -0.74571 
 Bq                    3.33972  -2.79446  -0.9114 
 Bq                    3.47603  -2.79446  -1.08052 
 Bq                    3.61235  -2.79446  -1.2476 
 Bq                    3.74866  -2.79446  -1.41172 
 Bq                    3.88498  -2.79446  -1.57859 
 Bq                    4.02129  -2.79446  -1.75617 
 Bq                    4.1576   -2.79446  -1.94619 
 Bq                    4.29392  -2.79446  -2.14069 
 Bq                    4.43023  -2.79446  -2.32992 
 Bq                    4.56655  -2.79446  -2.51492 
 Bq                    4.70286  -2.79446  -2.70815 
 Bq                   -4.70286  -2.65814   1.46679 
 Bq                   -4.56655  -2.65814   1.53225 
 Bq                   -4.43023  -2.65814   1.59783 
 Bq                   -4.29392  -2.65814   1.67037 
 Bq                   -4.1576   -2.65814   1.74257 
 Bq                   -4.02129  -2.65814   1.80383 
 Bq                   -3.88498  -2.65814   1.85245 
 Bq                   -3.74866  -2.65814   1.89581 
 Bq                   -3.61235  -2.65814   1.94151 
 Bq                   -3.47603  -2.65814   1.99042 
 Bq                   -3.33972  -2.65814   2.03725 
 Bq                   -3.2034   -2.65814   2.0761 
 Bq                   -3.06709  -2.65814   2.10491 
 Bq                   -2.93077  -2.65814   2.12604 
 Bq                   -2.79446  -2.65814   2.14368 
 Bq                   -2.65814  -2.65814   2.16097 
 Bq                   -2.52183  -2.65814   2.17855 
 Bq                   -2.38551  -2.65814   2.19491 
 Bq                   -2.2492   -2.65814   2.2077 
 Bq                   -2.11288  -2.65814   2.21496 
 Bq                   -1.97657  -2.65814   2.21576 
 Bq                   -1.84025  -2.65814   2.21018 
 Bq                   -1.70394  -2.65814   2.19898 
 Bq                   -1.56762  -2.65814   2.18311 
 Bq                   -1.43131  -2.65814   2.16339 
 Bq                   -1.29499  -2.65814   2.14037 
 Bq                   -1.15868  -2.65814   2.11424 
 Bq                   -1.02236  -2.65814   2.08501 
 Bq                   -0.88605  -2.65814   2.0525 
 Bq                   -0.74973  -2.65814   2.0165 
 Bq                   -0.61342  -2.65814   1.9768 
 Bq                   -0.4771   -2.65814   1.93319 
 Bq                   -0.34079  -2.65814   1.88556 
 Bq                   -0.20447  -2.65814   1.8338 
 Bq                   -0.06816  -2.65814   1.77786 
 Bq                    0.06816  -2.65814   1.71771 
 Bq                    0.20447  -2.65814   1.65336 
 Bq                    0.34079  -2.65814   1.58482 
 Bq                    0.4771   -2.65814   1.51215 
 Bq                    0.61342  -2.65814   1.43545 
 Bq                    0.74973  -2.65814   1.35486 
 Bq                    0.88605  -2.65814   1.27055 
 Bq                    1.02236  -2.65814   1.18276 
 Bq                    1.15868  -2.65814   1.09168 
 Bq                    1.29499  -2.65814   0.9975 
 Bq                    1.43131  -2.65814   0.90022 
 Bq                    1.56762  -2.65814   0.79962 
 Bq                    1.70394  -2.65814   0.69518 
 Bq                    1.84025  -2.65814   0.58606 
 Bq                    1.97657  -2.65814   0.47132 
 Bq                    2.11288  -2.65814   0.3502 
 Bq                    2.2492   -2.65814   0.22262 
 Bq                    2.38551  -2.65814   0.0895 
 Bq                    2.52183  -2.65814  -0.04718 
 Bq                    2.65814  -2.65814  -0.18508 
 Bq                    2.79446  -2.65814  -0.3227 
 Bq                    2.93077  -2.65814  -0.46067 
 Bq                    3.06709  -2.65814  -0.60212 
 Bq                    3.2034   -2.65814  -0.75126 
 Bq                    3.33972  -2.65814  -0.91043 
 Bq                    3.47603  -2.65814  -1.0776 
 Bq                    3.61235  -2.65814  -1.24683 
 Bq                    3.74866  -2.65814  -1.41286 
 Bq                    3.88498  -2.65814  -1.57654 
 Bq                    4.02129  -2.65814  -1.74548 
 Bq                    4.1576   -2.65814  -1.92706 
 Bq                    4.29392  -2.65814  -2.11959 
 Bq                    4.43023  -2.65814  -2.31244 
 Bq                    4.56655  -2.65814  -2.49834 
 Bq                    4.70286  -2.65814  -2.68411 
 Bq                   -4.70286  -2.52183   1.27879 
 Bq                   -4.56655  -2.52183   1.34786 
 Bq                   -4.43023  -2.52183   1.42307 
 Bq                   -4.29392  -2.52183   1.50248 
 Bq                   -4.1576   -2.52183   1.57439 
 Bq                   -4.02129  -2.52183   1.63259 
 Bq                   -3.88498  -2.52183   1.68222 
 Bq                   -3.74866  -2.52183   1.73245 
 Bq                   -3.61235  -2.52183   1.78681 
 Bq                   -3.47603  -2.52183   1.84107 
 Bq                   -3.33972  -2.52183   1.88839 
 Bq                   -3.2034   -2.52183   1.92533 
 Bq                   -3.06709  -2.52183   1.95363 
 Bq                   -2.93077  -2.52183   1.97783 
 Bq                   -2.79446  -2.52183   2.00175 
 Bq                   -2.65814  -2.52183   2.02639 
 Bq                   -2.52183  -2.52183   2.05013 
 Bq                   -2.38551  -2.52183   2.07024 
 Bq                   -2.2492   -2.52183   2.08444 
 Bq                   -2.11288  -2.52183   2.09176 
 Bq                   -1.97657  -2.52183   2.09244 
 Bq                   -1.84025  -2.52183   2.08754 
 Bq                   -1.70394  -2.52183   2.07826 
 Bq                   -1.56762  -2.52183   2.06556 
 Bq                   -1.43131  -2.52183   2.05 
 Bq                   -1.29499  -2.52183   2.03169 
 Bq                   -1.15868  -2.52183   2.01048 
 Bq                   -1.02236  -2.52183   1.98607 
 Bq                   -0.88605  -2.52183   1.95814 
 Bq                   -0.74973  -2.52183   1.9264 
 Bq                   -0.61342  -2.52183   1.89063 
 Bq                   -0.4771   -2.52183   1.8507 
 Bq                   -0.34079  -2.52183   1.80653 
 Bq                   -0.20447  -2.52183   1.75807 
 Bq                   -0.06816  -2.52183   1.70531 
 Bq                    0.06816  -2.52183   1.64824 
 Bq                    0.20447  -2.52183   1.58687 
 Bq                    0.34079  -2.52183   1.5212 
 Bq                    0.4771   -2.52183   1.45125 
 Bq                    0.61342  -2.52183   1.37705 
 Bq                    0.74973  -2.52183   1.29868 
 Bq                    0.88605  -2.52183   1.21629 
 Bq                    1.02236  -2.52183   1.13009 
 Bq                    1.15868  -2.52183   1.04036 
 Bq                    1.29499  -2.52183   0.94743 
 Bq                    1.43131  -2.52183   0.8516 
 Bq                    1.56762  -2.52183   0.75303 
 Bq                    1.70394  -2.52183   0.65158 
 Bq                    1.84025  -2.52183   0.54671 
 Bq                    1.97657  -2.52183   0.43747 
 Bq                    2.11288  -2.52183   0.32263 
 Bq                    2.2492   -2.52183   0.20117 
 Bq                    2.38551  -2.52183   0.07281 
 Bq                    2.52183  -2.52183  -0.06146 
 Bq                    2.65814  -2.52183  -0.19935 
 Bq                    2.79446  -2.52183  -0.33814 
 Bq                    2.93077  -2.52183  -0.47622 
 Bq                    3.06709  -2.52183  -0.61458 
 Bq                    3.2034   -2.52183  -0.75703 
 Bq                    3.33972  -2.52183  -0.90813 
 Bq                    3.47603  -2.52183  -1.06962 
 Bq                    3.61235  -2.52183  -1.23803 
 Bq                    3.74866  -2.52183  -1.40655 
 Bq                    3.88498  -2.52183  -1.57093 
 Bq                    4.02129  -2.52183  -1.73471 
 Bq                    4.1576   -2.52183  -1.90706 
 Bq                    4.29392  -2.52183  -2.09313 
 Bq                    4.43023  -2.52183  -2.28668 
 Bq                    4.56655  -2.52183  -2.47603 
 Bq                    4.70286  -2.52183  -2.65925 
 Bq                   -4.70286  -2.38551   1.09429 
 Bq                   -4.56655  -2.38551   1.171 
 Bq                   -4.43023  -2.38551   1.25509 
 Bq                   -4.29392  -2.38551   1.33712 
 Bq                   -4.1576   -2.38551   1.40638 
 Bq                   -4.02129  -2.38551   1.46361 
 Bq                   -3.88498  -2.38551   1.5182 
 Bq                   -3.74866  -2.38551   1.57696 
 Bq                   -3.61235  -2.38551   1.63797 
 Bq                   -3.47603  -2.38551   1.694 
 Bq                   -3.33972  -2.38551   1.73977 
 Bq                   -3.2034   -2.38551   1.7757 
 Bq                   -3.06709  -2.38551   1.80639 
 Bq                   -2.93077  -2.38551   1.83648 
 Bq                   -2.79446  -2.38551   1.86771 
 Bq                   -2.65814  -2.38551   1.8986 
 Bq                   -2.52183  -2.38551   1.92609 
 Bq                   -2.38551  -2.38551   1.94749 
 Bq                   -2.2492   -2.38551   1.96162 
 Bq                   -2.11288  -2.38551   1.96884 
 Bq                   -1.97657  -2.38551   1.97045 
 Bq                   -1.84025  -2.38551   1.96794 
 Bq                   -1.70394  -2.38551   1.96243 
 Bq                   -1.56762  -2.38551   1.95445 
 Bq                   -1.43131  -2.38551   1.94404 
 Bq                   -1.29499  -2.38551   1.93088 
 Bq                   -1.15868  -2.38551   1.91452 
 Bq                   -1.02236  -2.38551   1.89454 
 Bq                   -0.88605  -2.38551   1.87058 
 Bq                   -0.74973  -2.38551   1.84243 
 Bq                   -0.61342  -2.38551   1.80997 
 Bq                   -0.4771   -2.38551   1.77317 
 Bq                   -0.34079  -2.38551   1.73203 
 Bq                   -0.20447  -2.38551   1.68659 
 Bq                   -0.06816  -2.38551   1.63687 
 Bq                    0.06816  -2.38551   1.58289 
 Bq                    0.20447  -2.38551   1.52465 
 Bq                    0.34079  -2.38551   1.46213 
 Bq                    0.4771   -2.38551   1.39531 
 Bq                    0.61342  -2.38551   1.32416 
 Bq                    0.74973  -2.38551   1.24865 
 Bq                    0.88605  -2.38551   1.16884 
 Bq                    1.02236  -2.38551   1.08483 
 Bq                    1.15868  -2.38551   0.99685 
 Bq                    1.29499  -2.38551   0.90524 
 Bq                    1.43131  -2.38551   0.81043 
 Bq                    1.56762  -2.38551   0.71287 
 Bq                    1.70394  -2.38551   0.61287 
 Bq                    1.84025  -2.38551   0.51041 
 Bq                    1.97657  -2.38551   0.40494 
 Bq                    2.11288  -2.38551   0.29535 
 Bq                    2.2492   -2.38551   0.18015 
 Bq                    2.38551  -2.38551   0.05803 
 Bq                    2.52183  -2.38551  -0.07135 
 Bq                    2.65814  -2.38551  -0.20683 
 Bq                    2.79446  -2.38551  -0.3457 
 Bq                    2.93077  -2.38551  -0.48492 
 Bq                    3.06709  -2.38551  -0.623 
 Bq                    3.2034   -2.38551  -0.76168 
 Bq                    3.33972  -2.38551  -0.9056 
 Bq                    3.47603  -2.38551  -1.05935 
 Bq                    3.61235  -2.38551  -1.22337 
 Bq                    3.74866  -2.38551  -1.39236 
 Bq                    3.88498  -2.38551  -1.5591 
 Bq                    4.02129  -2.38551  -1.72168 
 Bq                    4.1576   -2.38551  -1.88689 
 Bq                    4.29392  -2.38551  -2.06413 
 Bq                    4.43023  -2.38551  -2.25414 
 Bq                    4.56655  -2.38551  -2.44621 
 Bq                    4.70286  -2.38551  -2.63089 
 Bq                   -4.70286  -2.2492    0.9156 
 Bq                   -4.56655  -2.2492    1.00154 
 Bq                   -4.43023  -2.2492    1.09153 
 Bq                   -4.29392  -2.2492    1.17274 
 Bq                   -4.1576   -2.2492    1.23966 
 Bq                   -4.02129  -2.2492    1.29936 
 Bq                   -3.88498  -2.2492    1.36154 
 Bq                   -3.74866  -2.2492    1.42806 
 Bq                   -3.61235  -2.2492    1.49254 
 Bq                   -3.47603  -2.2492    1.5478 
 Bq                   -3.33972  -2.2492    1.59214 
 Bq                   -3.2034   -2.2492    1.6295 
 Bq                   -3.06709  -2.2492    1.66537 
 Bq                   -2.93077  -2.2492    1.70263 
 Bq                   -2.79446  -2.2492    1.74034 
 Bq                   -2.65814  -2.2492    1.77525 
 Bq                   -2.52183  -2.2492    1.80415 
 Bq                   -2.38551  -2.2492    1.82548 
 Bq                   -2.2492   -2.2492    1.83953 
 Bq                   -2.11288  -2.2492    1.84783 
 Bq                   -1.97657  -2.2492    1.85215 
 Bq                   -1.84025  -2.2492    1.8538 
 Bq                   -1.70394  -2.2492    1.85336 
 Bq                   -1.56762  -2.2492    1.85076 
 Bq                   -1.43131  -2.2492    1.84553 
 Bq                   -1.29499  -2.2492    1.83705 
 Bq                   -1.15868  -2.2492    1.82478 
 Bq                   -1.02236  -2.2492    1.80833 
 Bq                   -0.88605  -2.2492    1.78748 
 Bq                   -0.74973  -2.2492    1.76215 
 Bq                   -0.61342  -2.2492    1.73237 
 Bq                   -0.4771   -2.2492    1.69821 
 Bq                   -0.34079  -2.2492    1.65977 
 Bq                   -0.20447  -2.2492    1.61713 
 Bq                   -0.06816  -2.2492    1.57034 
 Bq                    0.06816  -2.2492    1.51945 
 Bq                    0.20447  -2.2492    1.46444 
 Bq                    0.34079  -2.2492    1.4053 
 Bq                    0.4771   -2.2492    1.34195 
 Bq                    0.61342  -2.2492    1.27432 
 Bq                    0.74973  -2.2492    1.20231 
 Bq                    0.88605  -2.2492    1.12584 
 Bq                    1.02236  -2.2492    1.0449 
 Bq                    1.15868  -2.2492    0.95956 
 Bq                    1.29499  -2.2492    0.87003 
 Bq                    1.43131  -2.2492    0.7767 
 Bq                    1.56762  -2.2492    0.68014 
 Bq                    1.70394  -2.2492    0.58093 
 Bq                    1.84025  -2.2492    0.47956 
 Bq                    1.97657  -2.2492    0.3761 
 Bq                    2.11288  -2.2492    0.26997 
 Bq                    2.2492   -2.2492    0.15986 
 Bq                    2.38551  -2.2492    0.04399 
 Bq                    2.52183  -2.2492   -0.07914 
 Bq                    2.65814  -2.2492   -0.20986 
 Bq                    2.79446  -2.2492   -0.34659 
 Bq                    2.93077  -2.2492   -0.48612 
 Bq                    3.06709  -2.2492   -0.62519 
 Bq                    3.2034   -2.2492   -0.76288 
 Bq                    3.33972  -2.2492   -0.90206 
 Bq                    3.47603  -2.2492   -1.04821 
 Bq                    3.61235  -2.2492   -1.2053 
 Bq                    3.74866  -2.2492   -1.37159 
 Bq                    3.88498  -2.2492   -1.53992 
 Bq                    4.02129  -2.2492   -1.70392 
 Bq                    4.1576   -2.2492   -1.86543 
 Bq                    4.29392  -2.2492   -2.03416 
 Bq                    4.43023  -2.2492   -2.21717 
 Bq                    4.56655  -2.2492   -2.40897 
 Bq                    4.70286  -2.2492   -2.59672 
 Bq                   -4.70286  -2.11288   0.74382 
 Bq                   -4.56655  -2.11288   0.8381 
 Bq                   -4.43023  -2.11288   0.93044 
 Bq                   -4.29392  -2.11288   1.00933 
 Bq                   -4.1576   -2.11288   1.07615 
 Bq                   -4.02129  -2.11288   1.14146 
 Bq                   -3.88498  -2.11288   1.21183 
 Bq                   -3.74866  -2.11288   1.28373 
 Bq                   -3.61235  -2.11288   1.34886 
 Bq                   -3.47603  -2.11288   1.40261 
 Bq                   -3.33972  -2.11288   1.44727 
 Bq                   -3.2034   -2.11288   1.48874 
 Bq                   -3.06709  -2.11288   1.53139 
 Bq                   -2.93077  -2.11288   1.57541 
 Bq                   -2.79446  -2.11288   1.61767 
 Bq                   -2.65814  -2.11288   1.65438 
 Bq                   -2.52183  -2.11288   1.68333 
 Bq                   -2.38551  -2.11288   1.70456 
 Bq                   -2.2492   -2.11288   1.7197 
 Bq                   -2.11288  -2.11288   1.73081 
 Bq                   -1.97657  -2.11288   1.73948 
 Bq                   -1.84025  -2.11288   1.7464 
 Bq                   -1.70394  -2.11288   1.75143 
 Bq                   -1.56762  -2.11288   1.75394 
 Bq                   -1.43131  -2.11288   1.75315 
 Bq                   -1.29499  -2.11288   1.74838 
 Bq                   -1.15868  -2.11288   1.73919 
 Bq                   -1.02236  -2.11288   1.72536 
 Bq                   -0.88605  -2.11288   1.70687 
 Bq                   -0.74973  -2.11288   1.68381 
 Bq                   -0.61342  -2.11288   1.65632 
 Bq                   -0.4771   -2.11288   1.62456 
 Bq                   -0.34079  -2.11288   1.58867 
 Bq                   -0.20447  -2.11288   1.54875 
 Bq                   -0.06816  -2.11288   1.50487 
 Bq                    0.06816  -2.11288   1.45706 
 Bq                    0.20447  -2.11288   1.40532 
 Bq                    0.34079  -2.11288   1.34963 
 Bq                    0.4771   -2.11288   1.2899 
 Bq                    0.61342  -2.11288   1.22603 
 Bq                    0.74973  -2.11288   1.1579 
 Bq                    0.88605  -2.11288   1.08534 
 Bq                    1.02236  -2.11288   1.0082 
 Bq                    1.15868  -2.11288   0.92641 
 Bq                    1.29499  -2.11288   0.83997 
 Bq                    1.43131  -2.11288   0.74911 
 Bq                    1.56762  -2.11288   0.65426 
 Bq                    1.70394  -2.11288   0.55612 
 Bq                    1.84025  -2.11288   0.45545 
 Bq                    1.97657  -2.11288   0.3529 
 Bq                    2.11288  -2.11288   0.24859 
 Bq                    2.2492   -2.11288   0.14183 
 Bq                    2.38551  -2.11288   0.03105 
 Bq                    2.52183  -2.11288  -0.08582 
 Bq                    2.65814  -2.11288  -0.21042 
 Bq                    2.79446  -2.11288  -0.34278 
 Bq                    2.93077  -2.11288  -0.48068 
 Bq                    3.06709  -2.11288  -0.62035 
 Bq                    3.2034   -2.11288  -0.75865 
 Bq                    3.33972  -2.11288  -0.89577 
 Bq                    3.47603  -2.11288  -1.03607 
 Bq                    3.61235  -2.11288  -1.18547 
 Bq                    3.74866  -2.11288  -1.34625 
 Bq                    3.88498  -2.11288  -1.5138 
 Bq                    4.02129  -2.11288  -1.67981 
 Bq                    4.1576   -2.11288  -1.84076 
 Bq                    4.29392  -2.11288  -2.00322 
 Bq                    4.43023  -2.11288  -2.17774 
 Bq                    4.56655  -2.11288  -2.36572 
 Bq                    4.70286  -2.11288  -2.55564 
 Bq                   -4.70286  -1.97657   0.57875 
 Bq                   -4.56655  -1.97657   0.67894 
 Bq                   -4.43023  -1.97657   0.77089 
 Bq                   -4.29392  -1.97657   0.84795 
 Bq                   -4.1576   -1.97657   0.91757 
 Bq                   -4.02129  -1.97657   0.99032 
 Bq                   -3.88498  -1.97657   1.06772 
 Bq                   -3.74866  -1.97657   1.14229 
 Bq                   -3.61235  -1.97657   1.20649 
 Bq                   -3.47603  -1.97657   1.2596 
 Bq                   -3.33972  -1.97657   1.30695 
 Bq                   -3.2034   -1.97657   1.35443 
 Bq                   -3.06709  -1.97657   1.40402 
 Bq                   -2.93077  -1.97657   1.45327 
 Bq                   -2.79446  -1.97657   1.49798 
 Bq                   -2.65814  -1.97657   1.53505 
 Bq                   -2.52183  -1.97657   1.56389 
 Bq                   -2.38551  -1.97657   1.58605 
 Bq                   -2.2492   -1.97657   1.60389 
 Bq                   -2.11288  -1.97657   1.61935 
 Bq                   -1.97657  -1.97657   1.63335 
 Bq                   -1.84025  -1.97657   1.64577 
 Bq                   -1.70394  -1.97657   1.65583 
 Bq                   -1.56762  -1.97657   1.66257 
 Bq                   -1.43131  -1.97657   1.66517 
 Bq                   -1.29499  -1.97657   1.6631 
 Bq                   -1.15868  -1.97657   1.65614 
 Bq                   -1.02236  -1.97657   1.64433 
[...]
 019,3.15988188\Bq,0,4.56654968,3.74866019,3.12290712\Bq,0,4.7028646,3.
 74866019,3.07812741\Bq,0,-4.7028646,3.8849751,-2.77344048\Bq,0,-4.5665
 4968,3.8849751,-2.54598761\Bq,0,-4.43023477,3.8849751,-2.33381562\Bq,0
 ,-4.29391985,3.8849751,-2.12727151\Bq,0,-4.15760493,3.8849751,-1.91578
 561\Bq,0,-4.02129002,3.8849751,-1.70032999\Bq,0,-3.8849751,3.8849751,-
 1.49038214\Bq,0,-3.74866019,3.8849751,-1.29260719\Bq,0,-3.61234527,3.8
 849751,-1.10489881\Bq,0,-3.47603035,3.8849751,-0.91999095\Bq,0,-3.3397
 1544,3.8849751,-0.73268804\Bq,0,-3.20340052,3.8849751,-0.54356266\Bq,0
 ,-3.06708561,3.8849751,-0.35727207\Bq,0,-2.93077069,3.8849751,-0.17842
 84\Bq,0,-2.79445578,3.8849751,-0.00867522\Bq,0,-2.65814086,3.8849751,0
 .15354253\Bq,0,-2.52182594,3.8849751,0.31130814\Bq,0,-2.38551103,3.884
 9751,0.46728307\Bq,0,-2.24919611,3.8849751,0.62260673\Bq,0,-2.1128812,
 3.8849751,0.77686495\Bq,0,-1.97656628,3.8849751,0.92872571\Bq,0,-1.840
 25136,3.8849751,1.07670297\Bq,0,-1.70393645,3.8849751,1.21969038\Bq,0,
 -1.56762153,3.8849751,1.35716115\Bq,0,-1.43130662,3.8849751,1.48910696
 \Bq,0,-1.2949917,3.8849751,1.61585011\Bq,0,-1.15867678,3.8849751,1.737
 84341\Bq,0,-1.02236187,3.8849751,1.85552152\Bq,0,-0.88604695,3.8849751
 ,1.96922099\Bq,0,-0.74973204,3.8849751,2.07915763\Bq,0,-0.61341712,3.8
 849751,2.1854401\Bq,0,-0.47710221,3.8849751,2.28809956\Bq,0,-0.3407872
 9,3.8849751,2.38712164\Bq,0,-0.20447237,3.8849751,2.48247346\Bq,0,-0.0
 6815746,3.8849751,2.5741231\Bq,0,0.06815746,3.8849751,2.6620517\Bq,0,0
 .20447237,3.8849751,2.74625911\Bq,0,0.34078729,3.8849751,2.82676394\Bq
 ,0,0.47710221,3.8849751,2.90359783\Bq,0,0.61341712,3.8849751,2.9767934
 2\Bq,0,0.74973204,3.8849751,3.04636484\Bq,0,0.88604695,3.8849751,3.112
 28071\Bq,0,1.02236187,3.8849751,3.1744322\Bq,0,1.15867678,3.8849751,3.
 23260332\Bq,0,1.2949917,3.8849751,3.28645741\Bq,0,1.43130662,3.8849751
 ,3.33555971\Bq,0,1.56762153,3.8849751,3.37945736\Bq,0,1.70393645,3.884
 9751,3.41782804\Bq,0,1.84025136,3.8849751,3.45068007\Bq,0,1.97656628,3
 .8849751,3.47854031\Bq,0,2.1128812,3.8849751,3.50251521\Bq,0,2.2491961
 1,3.8849751,3.52409091\Bq,0,2.38551103,3.8849751,3.54459961\Bq,0,2.521
 82594,3.8849751,3.56445566\Bq,0,2.65814086,3.8849751,3.58251986\Bq,0,2
 .79445578,3.8849751,3.59613098\Bq,0,2.93077069,3.8849751,3.60220598\Bq
 ,0,3.06708561,3.8849751,3.59919007\Bq,0,3.20340052,3.8849751,3.5887270
 9\Bq,0,3.33971544,3.8849751,3.57542946\Bq,0,3.47603035,3.8849751,3.563
 95468\Bq,0,3.61234527,3.8849751,3.55487561\Bq,0,3.74866019,3.8849751,3
 .54299694\Bq,0,3.8849751,3.8849751,3.52105284\Bq,0,4.02129002,3.884975
 1,3.48693722\Bq,0,4.15760493,3.8849751,3.44731537\Bq,0,4.29391985,3.88
 49751,3.41166496\Bq,0,4.43023477,3.8849751,3.38095817\Bq,0,4.56654968,
 3.8849751,3.34462545\Bq,0,4.7028646,3.8849751,3.29301384\Bq,0,-4.70286
 46,4.02129002,-2.771578\Bq,0,-4.56654968,4.02129002,-2.53540106\Bq,0,-
 4.43023477,4.02129002,-2.31047096\Bq,0,-4.29391985,4.02129002,-2.09981
 009\Bq,0,-4.15760493,4.02129002,-1.89352486\Bq,0,-4.02129002,4.0212900
 2,-1.68244098\Bq,0,-3.8849751,4.02129002,-1.46806242\Bq,0,-3.74866019,
 4.02129002,-1.25911814\Bq,0,-3.61234527,4.02129002,-1.06173847\Bq,0,-3
 .47603035,4.02129002,-0.87436963\Bq,0,-3.33971544,4.02129002,-0.690642
 8\Bq,0,-3.20340052,4.02129002,-0.50544731\Bq,0,-3.06708561,4.02129002,
 -0.31843795\Bq,0,-2.93077069,4.02129002,-0.13318681\Bq,0,-2.79445578,4
 .02129002,0.04602\Bq,0,-2.65814086,4.02129002,0.21687864\Bq,0,-2.52182
 594,4.02129002,0.37980304\Bq,0,-2.38551103,4.02129002,0.53698454\Bq,0,
 -2.24919611,4.02129002,0.69088731\Bq,0,-2.1128812,4.02129002,0.8431324
 7\Bq,0,-1.97656628,4.02129002,0.9941316\Bq,0,-1.84025136,4.02129002,1.
 14332726\Bq,0,-1.70393645,4.02129002,1.28969567\Bq,0,-1.56762153,4.021
 29002,1.43221323\Bq,0,-1.43130662,4.02129002,1.5701388\Bq,0,-1.2949917
 ,4.02129002,1.70309928\Bq,0,-1.15867678,4.02129002,1.83103968\Bq,0,-1.
 02236187,4.02129002,1.95411373\Bq,0,-0.88604695,4.02129002,2.07257211\
 Bq,0,-0.74973204,4.02129002,2.18667856\Bq,0,-0.61341712,4.02129002,2.2
 9666098\Bq,0,-0.47710221,4.02129002,2.4026922\Bq,0,-0.34078729,4.02129
 002,2.50489011\Bq,0,-0.20447237,4.02129002,2.60332755\Bq,0,-0.06815746
 ,4.02129002,2.69804447\Bq,0,0.06815746,4.02129002,2.78905802\Bq,0,0.20
 447237,4.02129002,2.87636805\Bq,0,0.34078729,4.02129002,2.95995716\Bq,
 0,0.47710221,4.02129002,3.03978513\Bq,0,0.61341712,4.02129002,3.115778
 87\Bq,0,0.74973204,4.02129002,3.18782023\Bq,0,0.88604695,4.02129002,3.
 2557362\Bq,0,1.02236187,4.02129002,3.31929868\Bq,0,1.15867678,4.021290
 02,3.37824377\Bq,0,1.2949917,4.02129002,3.43232065\Bq,0,1.43130662,4.0
 2129002,3.48137554\Bq,0,1.56762153,4.02129002,3.52546332\Bq,0,1.703936
 45,4.02129002,3.56495711\Bq,0,1.84025136,4.02129002,3.60059805\Bq,0,1.
 97656628,4.02129002,3.63340979\Bq,0,2.1128812,4.02129002,3.66441621\Bq
 ,0,2.24919611,4.02129002,3.69417488\Bq,0,2.38551103,4.02129002,3.72227
 438\Bq,0,2.52182594,4.02129002,3.74709376\Bq,0,2.65814086,4.02129002,3
 .76616906\Bq,0,2.79445578,4.02129002,3.77730919\Bq,0,2.93077069,4.0212
 9002,3.78010047\Bq,0,3.06708561,4.02129002,3.77684699\Bq,0,3.20340052,
 4.02129002,3.77183515\Bq,0,3.33971544,4.02129002,3.7686373\Bq,0,3.4760
 3035,4.02129002,3.76690851\Bq,0,3.61234527,4.02129002,3.76153837\Bq,0,
 3.74866019,4.02129002,3.74615831\Bq,0,3.8849751,4.02129002,3.71921479\
 Bq,0,4.02129002,4.02129002,3.68683835\Bq,0,4.15760493,4.02129002,3.657
 75815\Bq,0,4.29391985,4.02129002,3.6334783\Bq,0,4.43023477,4.02129002,
 3.60482467\Bq,0,4.56654968,4.02129002,3.56190373\Bq,0,4.7028646,4.0212
 9002,3.50773795\Bq,0,-4.7028646,4.15760493,-2.76068896\Bq,0,-4.5665496
 8,4.15760493,-2.52663965\Bq,0,-4.43023477,4.15760493,-2.29174623\Bq,0,
 -4.29391985,4.15760493,-2.06863679\Bq,0,-4.15760493,4.15760493,-1.8589
 5609\Bq,0,-4.02129002,4.15760493,-1.65324843\Bq,0,-3.8849751,4.1576049
 3,-1.44324161\Bq,0,-3.74866019,4.15760493,-1.23019654\Bq,0,-3.61234527
 ,4.15760493,-1.02191688\Bq,0,-3.47603035,4.15760493,-0.8243753\Bq,0,-3
 .33971544,4.15760493,-0.63699124\Bq,0,-3.20340052,4.15760493,-0.454465
 72\Bq,0,-3.06708561,4.15760493,-0.27173349\Bq,0,-2.93077069,4.15760493
 ,-0.08738982\Bq,0,-2.79445578,4.15760493,0.09628537\Bq,0,-2.65814086,4
 .15760493,0.27558098\Bq,0,-2.52182594,4.15760493,0.44773583\Bq,0,-2.38
 551103,4.15760493,0.61205872\Bq,0,-2.24919611,4.15760493,0.76966157\Bq
 ,0,-2.1128812,4.15760493,0.92246187\Bq,0,-1.97656628,4.15760493,1.0721
 9667\Bq,0,-1.84025136,4.15760493,1.21986576\Bq,0,-1.70393645,4.1576049
 3,1.36565166\Bq,0,-1.56762153,4.15760493,1.50914634\Bq,0,-1.43130662,4
 .15760493,1.64967389\Bq,0,-1.2949917,4.15760493,1.78656097\Bq,0,-1.158
 67678,4.15760493,1.9192948\Bq,0,-1.02236187,4.15760493,2.04757364\Bq,0
 ,-0.88604695,4.15760493,2.17128527\Bq,0,-0.74973204,4.15760493,2.29045
 255\Bq,0,-0.61341712,4.15760493,2.40517456\Bq,0,-0.47710221,4.15760493
 ,2.51557858\Bq,0,-0.34078729,4.15760493,2.62178767\Bq,0,-0.20447237,4.
 15760493,2.7239022\Bq,0,-0.06815746,4.15760493,2.8219913\Bq,0,0.068157
 46,4.15760493,2.9160898\Bq,0,0.20447237,4.15760493,3.00619756\Bq,0,0.3
 4078729,4.15760493,3.09227948\Bq,0,0.47710221,4.15760493,3.17426617\Bq
 ,0,0.61341712,4.15760493,3.252057\Bq,0,0.74973204,4.15760493,3.3255286
 8\Bq,0,0.88604695,4.15760493,3.39455372\Bq,0,1.02236187,4.15760493,3.4
 5903285\Bq,0,1.15867678,4.15760493,3.51894306\Bq,0,1.2949917,4.1576049
 3,3.57439642\Bq,0,1.43130662,4.15760493,3.62569459\Bq,0,1.56762153,4.1
 5760493,3.67335031\Bq,0,1.70393645,4.15760493,3.71803688\Bq,0,1.840251
 36,4.15760493,3.76043022\Bq,0,1.97656628,4.15760493,3.80093844\Bq,0,2.
 1128812,4.15760493,3.83937911\Bq,0,2.24919611,4.15760493,3.87475253\Bq
 ,0,2.38551103,4.15760493,3.90532185\Bq,0,2.52182594,4.15760493,3.92916
 973\Bq,0,2.65814086,4.15760493,3.9451845\Bq,0,2.79445578,4.15760493,3.
 95405756\Bq,0,2.93077069,4.15760493,3.95855036\Bq,0,3.06708561,4.15760
 493,3.96237426\Bq,0,3.20340052,4.15760493,3.96780945\Bq,0,3.33971544,4
 .15760493,3.97345147\Bq,0,3.47603035,4.15760493,3.97423534\Bq,0,3.6123
 4527,4.15760493,3.96486237\Bq,0,3.74866019,4.15760493,3.94475222\Bq,0,
 3.8849751,4.15760493,3.91987782\Bq,0,4.02129002,4.15760493,3.89804302\
 Bq,0,4.15760493,4.15760493,3.88050894\Bq,0,4.29391985,4.15760493,3.859
 00352\Bq,0,4.43023477,4.15760493,3.82407122\Bq,0,4.56654968,4.15760493
 ,3.77735686\Bq,0,4.7028646,4.15760493,3.73148862\Bq,0,-4.7028646,4.293
 91985,-2.73606355\Bq,0,-4.56654968,4.29391985,-2.50980168\Bq,0,-4.4302
 3477,4.29391985,-2.27599196\Bq,0,-4.29391985,4.29391985,-2.04235096\Bq
 ,0,-4.15760493,4.29391985,-1.82035153\Bq,0,-4.02129002,4.29391985,-1.6
 112484\Bq,0,-3.8849751,4.29391985,-1.40644224\Bq,0,-3.74866019,4.29391
 985,-1.19812892\Bq,0,-3.61234527,4.29391985,-0.98673971\Bq,0,-3.476030
 35,4.29391985,-0.77896002\Bq,0,-3.33971544,4.29391985,-0.58077444\Bq,0
 ,-3.20340052,4.29391985,-0.39285511\Bq,0,-3.06708561,4.29391985,-0.211
 22495\Bq,0,-2.93077069,4.29391985,-0.03104911\Bq,0,-2.79445578,4.29391
 985,0.15008497\Bq,0,-2.65814086,4.29391985,0.33134969\Bq,0,-2.52182594
 ,4.29391985,0.50996389\Bq,0,-2.38551103,4.29391985,0.68310674\Bq,0,-2.
 24919611,4.29391985,0.84922068\Bq,0,-2.1128812,4.29391985,1.00829437\B
 q,0,-1.97656628,4.29391985,1.161393\Bq,0,-1.84025136,4.29391985,1.3099
 377\Bq,0,-1.70393645,4.29391985,1.45512568\Bq,0,-1.56762153,4.29391985
 ,1.59764928\Bq,0,-1.43130662,4.29391985,1.73768447\Bq,0,-1.2949917,4.2
 9391985,1.87503498\Bq,0,-1.15867678,4.29391985,2.00931799\Bq,0,-1.0223
 6187,4.29391985,2.14011872\Bq,0,-0.88604695,4.29391985,2.26708567\Bq,0
 ,-0.74973204,4.29391985,2.38996956\Bq,0,-0.61341712,4.29391985,2.50862
 269\Bq,0,-0.47710221,4.29391985,2.62297756\Bq,0,-0.34078729,4.29391985
 ,2.73301896\Bq,0,-0.20447237,4.29391985,2.83875826\Bq,0,-0.06815746,4.
 29391985,2.94021359\Bq,0,0.06815746,4.29391985,3.03739704\Bq,0,0.20447
 237,4.29391985,3.13030847\Bq,0,0.34078729,4.29391985,3.21893553\Bq,0,0
 .47710221,4.29391985,3.3032598\Bq,0,0.61341712,4.29391985,3.38326969\B
 q,0,0.74973204,4.29391985,3.45898016\Bq,0,0.88604695,4.29391985,3.5304
 5849\Bq,0,1.02236187,4.29391985,3.5978522\Bq,0,1.15867678,4.29391985,3
 .66141042\Bq,0,1.2949917,4.29391985,3.7214845\Bq,0,1.43130662,4.293919
 85,3.77848915\Bq,0,1.56762153,4.29391985,3.83280712\Bq,0,1.70393645,4.
 29391985,3.88463468\Bq,0,1.84025136,4.29391985,3.93379584\Bq,0,1.97656
 628,4.29391985,3.97959836\Bq,0,2.1128812,4.29391985,4.02084509\Bq,0,2.
 24919611,4.29391985,4.05611503\Bq,0,2.38551103,4.29391985,4.08434316\B
 q,0,2.52182594,4.29391985,4.10554099\Bq,0,2.65814086,4.29391985,4.1212
 6631\Bq,0,2.79445578,4.29391985,4.13434016\Bq,0,2.93077069,4.29391985,
 4.14754397\Bq,0,3.06708561,4.29391985,4.1617056\Bq,0,3.20340052,4.2939
 1985,4.17441277\Bq,0,3.33971544,4.29391985,4.18083088\Bq,0,3.47603035,
 4.29391985,4.17698313\Bq,0,3.61234527,4.29391985,4.16354195\Bq,0,3.748
 66019,4.29391985,4.14649216\Bq,0,3.8849751,4.29391985,4.1325194\Bq,0,4
 .02129002,4.29391985,4.12205517\Bq,0,4.15760493,4.29391985,4.10729552\
 Bq,0,4.29391985,4.29391985,4.07964128\Bq,0,4.43023477,4.29391985,4.040
 34732\Bq,0,4.56654968,4.29391985,4.00088657\Bq,0,4.7028646,4.29391985,
 3.96897566\Bq,0,-4.7028646,4.43023477,-2.70436501\Bq,0,-4.56654968,4.4
 3023477,-2.47858353\Bq,0,-4.43023477,4.43023477,-2.25261688\Bq,0,-4.29
 391985,4.43023477,-2.01969788\Bq,0,-4.15760493,4.43023477,-1.78716689\
 Bq,0,-4.02129002,4.43023477,-1.56561518\Bq,0,-3.8849751,4.43023477,-1.
 35669228\Bq,0,-3.74866019,4.43023477,-1.15298806\Bq,0,-3.61234527,4.43
 023477,-0.94691425\Bq,0,-3.47603035,4.43023477,-0.73765458\Bq,0,-3.339
 71544,4.43023477,-0.53049947\Bq,0,-3.20340052,4.43023477,-0.33136006\B
 q,0,-3.06708561,4.43023477,-0.1422585\Bq,0,-2.93077069,4.43023477,0.03
 917527\Bq,0,-2.79445578,4.43023477,0.2171518\Bq,0,-2.65814086,4.430234
 77,0.39479068\Bq,0,-2.52182594,4.43023477,0.57271209\Bq,0,-2.38551103,
 4.43023477,0.74940227\Bq,0,-2.24919611,4.43023477,0.92250796\Bq,0,-2.1
 128812,4.43023477,1.09007194\Bq,0,-1.97656628,4.43023477,1.25116581\Bq
 ,0,-1.84025136,4.43023477,1.40588963\Bq,0,-1.70393645,4.43023477,1.554
 99782\Bq,0,-1.56762153,4.43023477,1.69944812\Bq,0,-1.43130662,4.430234
 77,1.84006489\Bq,0,-1.2949917,4.43023477,1.97737743\Bq,0,-1.15867678,4
 .43023477,2.11160547\Bq,0,-1.02236187,4.43023477,2.24272927\Bq,0,-0.88
 604695,4.43023477,2.37058624\Bq,0,-0.74973204,4.43023477,2.49495689\Bq
 ,0,-0.61341712,4.43023477,2.61562412\Bq,0,-0.47710221,4.43023477,2.732
 40521\Bq,0,-0.34078729,4.43023477,2.84516282\Bq,0,-0.20447237,4.430234
 77,2.95380357\Bq,0,-0.06815746,4.43023477,3.0582712\Bq,0,0.06815746,4.
 43023477,3.1585396\Bq,0,0.20447237,4.43023477,3.25460864\Bq,0,0.340787
 29,4.43023477,3.34650414\Bq,0,0.47710221,4.43023477,3.43428211\Bq,0,0.
 61341712,4.43023477,3.51803569\Bq,0,0.74973204,4.43023477,3.59790195\B
 q,0,0.88604695,4.43023477,3.67406343\Bq,0,1.02236187,4.43023477,3.7467
 3702\Bq,0,1.15867678,4.43023477,3.81614207\Bq,0,1.2949917,4.43023477,3
 .88244102\Bq,0,1.43130662,4.43023477,3.94565354\Bq,0,1.56762153,4.4302
 3477,4.00555984\Bq,0,1.70393645,4.43023477,4.06163059\Bq,0,1.84025136,
 4.43023477,4.11304146\Bq,0,1.97656628,4.43023477,4.15883476\Bq,0,2.112
 8812,4.43023477,4.19825615\Bq,0,2.24919611,4.43023477,4.2312057\Bq,0,2
 .38551103,4.43023477,4.25861198\Bq,0,2.52182594,4.43023477,4.28243238\
 Bq,0,2.65814086,4.43023477,4.30502039\Bq,0,2.79445578,4.43023477,4.327
 88999\Bq,0,2.93077069,4.43023477,4.35042125\Bq,0,3.06708561,4.43023477
 ,4.36949486\Bq,0,3.20340052,4.43023477,4.38090051\Bq,0,3.33971544,4.43
 023477,4.38226845\Bq,0,3.47603035,4.43023477,4.37562109\Bq,0,3.6123452
 7,4.43023477,4.36686982\Bq,0,3.74866019,4.43023477,4.36130533\Bq,0,3.8
 849751,4.43023477,4.35811158\Bq,0,4.02129002,4.43023477,4.3497005\Bq,0
 ,4.15760493,4.43023477,4.32866218\Bq,0,4.29391985,4.43023477,4.2966462
 9\Bq,0,4.43023477,4.43023477,4.26424422\Bq,0,4.56654968,4.43023477,4.2
 3879645\Bq,0,4.7028646,4.43023477,4.21353583\Bq,0,-4.7028646,4.5665496
 8,-2.6771403\Bq,0,-4.56654968,4.56654968,-2.43937032\Bq,0,-4.43023477,
 4.56654968,-2.21428065\Bq,0,-4.29391985,4.56654968,-1.98920472\Bq,0,-4
 .15760493,4.56654968,-1.75775743\Bq,0,-4.02129002,4.56654968,-1.526242
 41\Bq,0,-3.8849751,4.56654968,-1.30456139\Bq,0,-3.74866019,4.56654968,
 -1.0953293\Bq,0,-3.61234527,4.56654968,-0.8926811\Bq,0,-3.47603035,4.5
 6654968,-0.68925275\Bq,0,-3.33971544,4.56654968,-0.48275907\Bq,0,-3.20
 340052,4.56654968,-0.27674688\Bq,0,-3.06708561,4.56654968,-0.07669653\
 Bq,0,-2.93077069,4.56654968,0.11418336\Bq,0,-2.79445578,4.56654968,0.2
 9645744\Bq,0,-2.65814086,4.56654968,0.47319615\Bq,0,-2.52182594,4.5665
 4968,0.64766345\Bq,0,-2.38551103,4.56654968,0.82163711\Bq,0,-2.2491961
 1,4.56654968,0.99501315\Bq,0,-2.1128812,4.56654968,1.16640263\Bq,0,-1.
 97656628,4.56654968,1.33406073\Bq,0,-1.84025136,4.56654968,1.49661719\
 Bq,0,-1.70393645,4.56654968,1.65339695\Bq,0,-1.56762153,4.56654968,1.8
 0438243\Bq,0,-1.43130662,4.56654968,1.94998429\Bq,0,-1.2949917,4.56654
 968,2.09077973\Bq,0,-1.15867678,4.56654968,2.22731364\Bq,0,-1.02236187
 ,4.56654968,2.35999211\Bq,0,-0.88604695,4.56654968,2.48905484\Bq,0,-0.
 74973204,4.56654968,2.61459718\Bq,0,-0.61341712,4.56654968,2.73661319\
 Bq,0,-0.47710221,4.56654968,2.85504023\Bq,0,-0.34078729,4.56654968,2.9
 6979509\Bq,0,-0.20447237,4.56654968,3.08079912\Bq,0,-0.06815746,4.5665
 4968,3.1879934\Bq,0,0.06815746,4.56654968,3.29134675\Bq,0,0.20447237,4
 .56654968,3.39085904\Bq,0,0.34078729,4.56654968,3.48656116\Bq,0,0.4771
 0221,4.56654968,3.57851179\Bq,0,0.61341712,4.56654968,3.66678932\Bq,0,
 0.74973204,4.56654968,3.7514767\Bq,0,0.88604695,4.56654968,3.83263639\
 Bq,0,1.02236187,4.56654968,3.91027413\Bq,0,1.15867678,4.56654968,3.984
 29441\Bq,0,1.2949917,4.56654968,4.05445739\Bq,0,1.43130662,4.56654968,
 4.12035692\Bq,0,1.56762153,4.56654968,4.18144803\Bq,0,1.70393645,4.566
 54968,4.2371535\Bq,0,1.84025136,4.56654968,4.2870627\Bq,0,1.97656628,4
 .56654968,4.33119325\Bq,0,2.1128812,4.56654968,4.37022032\Bq,0,2.24919
 611,4.56654968,4.40551428\Bq,0,2.38551103,4.56654968,4.43882011\Bq,0,2
 .52182594,4.56654968,4.47152693\Bq,0,2.65814086,4.56654968,4.50373895\
 Bq,0,2.79445578,4.56654968,4.53367863\Bq,0,2.93077069,4.56654968,4.558
 08225\Bq,0,3.06708561,4.56654968,4.57387963\Bq,0,3.20340052,4.56654968
 ,4.5805064\Bq,0,3.33971544,4.56654968,4.58117146\Bq,0,3.47603035,4.566
 54968,4.58135543\Bq,0,3.61234527,4.56654968,4.58460538\Bq,0,3.74866019
 ,4.56654968,4.5886364\Bq,0,3.8849751,4.56654968,4.58608469\Bq,0,4.0212
 9002,4.56654968,4.5710854\Bq,0,4.15760493,4.56654968,4.54625366\Bq,0,4
 .29391985,4.56654968,4.52149137\Bq,0,4.43023477,4.56654968,4.50310228\
 Bq,0,4.56654968,4.56654968,4.48470138\Bq,0,4.7028646,4.56654968,4.4536
 2217\Bq,0,-4.7028646,4.7028646,-2.6556978\Bq,0,-4.56654968,4.7028646,-
 2.40482864\Bq,0,-4.43023477,4.7028646,-2.16775047\Bq,0,-4.29391985,4.7
 028646,-1.94315493\Bq,0,-4.15760493,4.7028646,-1.71949507\Bq,0,-4.0212
 9002,4.7028646,-1.49010768\Bq,0,-3.8849751,4.7028646,-1.25970259\Bq,0,
 -3.74866019,4.7028646,-1.0374687\Bq,0,-3.61234527,4.7028646,-0.8273114
 5\Bq,0,-3.47603035,4.7028646,-0.62531286\Bq,0,-3.33971544,4.7028646,-0
 .42464354\Bq,0,-3.20340052,4.7028646,-0.22160323\Bq,0,-3.06708561,4.70
 28646,-0.01767567\Bq,0,-2.93077069,4.7028646,0.18267147\Bq,0,-2.794455
 78,4.7028646,0.37553791\Bq,0,-2.65814086,4.7028646,0.55974266\Bq,0,-2.
 52182594,4.7028646,0.73676042\Bq,0,-2.38551103,4.7028646,0.90926916\Bq
 ,0,-2.24919611,4.7028646,1.07958449\Bq,0,-2.1128812,4.7028646,1.248793
 02\Bq,0,-1.97656628,4.7028646,1.41671021\Bq,0,-1.84025136,4.7028646,1.
 58235143\Bq,0,-1.70393645,4.7028646,1.74451728\Bq,0,-1.56762153,4.7028
 646,1.9022261\Bq,0,-1.43130662,4.7028646,2.05490725\Bq,0,-1.2949917,4.
 7028646,2.20239613\Bq,0,-1.15867678,4.7028646,2.34482084\Bq,0,-1.02236
 187,4.7028646,2.48246253\Bq,0,-0.88604695,4.7028646,2.6156398\Bq,0,-0.
 74973204,4.7028646,2.74463591\Bq,0,-0.61341712,4.7028646,2.86966642\Bq
 ,0,-0.47710221,4.7028646,2.99087559\Bq,0,-0.34078729,4.7028646,3.10834
 849\Bq,0,-0.20447237,4.7028646,3.22212869\Bq,0,-0.06815746,4.7028646,3
 .33223488\Bq,0,0.06815746,4.7028646,3.43867319\Bq,0,0.20447237,4.70286
 46,3.54144346\Bq,0,0.34078729,4.7028646,3.64053933\Bq,0,0.47710221,4.7
 028646,3.73594181\Bq,0,0.61341712,4.7028646,3.82760711\Bq,0,0.74973204
 ,4.7028646,3.9154499\Bq,0,0.88604695,4.7028646,3.99932572\Bq,0,1.02236
 187,4.7028646,4.07901881\Bq,0,1.15867678,4.7028646,4.15424577\Bq,0,1.2
 949917,4.7028646,4.22468787\Bq,0,1.43130662,4.7028646,4.29006385\Bq,0,
 1.56762153,4.7028646,4.35024558\Bq,0,1.70393645,4.7028646,4.40539761\B
 q,0,1.84025136,4.7028646,4.45609062\Bq,0,1.97656628,4.7028646,4.503306
 32\Bq,0,2.1128812,4.7028646,4.54824419\Bq,0,2.24919611,4.7028646,4.591
 889\Bq,0,2.38551103,4.7028646,4.63442545\Bq,0,2.52182594,4.7028646,4.6
 747671\Bq,0,2.65814086,4.7028646,4.71059856\Bq,0,2.79445578,4.7028646,
 4.73924209\Bq,0,2.93077069,4.7028646,4.75922326\Bq,0,3.06708561,4.7028
 646,4.77172329\Bq,0,3.20340052,4.7028646,4.78064275\Bq,0,3.33971544,4.
 7028646,4.7904496\Bq,0,3.47603035,4.7028646,4.80262783\Bq,0,3.61234527
 ,4.7028646,4.81347745\Bq,0,3.74866019,4.7028646,4.81616932\Bq,0,3.8849
 751,4.7028646,4.8067857\Bq,0,4.02129002,4.7028646,4.78923225\Bq,0,4.15
 760493,4.7028646,4.77269804\Bq,0,4.29391985,4.7028646,4.76189309\Bq,0,
 4.43023477,4.7028646,4.75015429\Bq,0,4.56654968,4.7028646,4.72593479\B
 q,0,4.7028646,4.7028646,4.6879263\\Version=EM64L-G09RevD.01\HF=-23266.
 150157\RMSD=8.146e-09\Dipole=-0.0001468,-0.0001415,-0.0026406\Quadrupo
 le=2.2986903,2.562213,-4.8609032,-0.1944343,-0.0006079,0.0003819\PG=C0
 1 [X(C10As10N10)]\\@


 IT IS UNWORTHY OF EXCELLENT MEN TO LOSE HOURS LIKE SLAVES IN THE LABOR
 OF CALCULATION WHICH COULD BE SAFELY RELEGATED TO ANYONE ELSE
 IF A MACHINE WERE USED.
    -- G.W. VON LEIBNIZ
 Job cpu time:       0 days  1 hours 11 minutes 29.0 seconds.
 File lengths (MBytes):  RWF=    243 Int=      0 D2E=      0 Chk=     30 Scr=      1
 Normal termination of Gaussian 09 at Tue Feb  4 13:37:04 2020.
